                         Program Version 5.0.2 -  RELEASE  -
|  1> ! b3lyp aug-cc-PVTZ RIJCOSX Opt
|  2> %maxcore 4000
|  3> %basis
|  4>  AuxJ "aug-cc-PVTZ/JK"
|  5>  AuxC "aug-cc-PVTZ/C"
|  6>  newGTO H "cc-PVTZ" end
|  7>  newAuxJGTO H "cc-PVTZ/JK" end
|  8>  newAuxCGTO H "cc-PVTZ/C" end
|  9> end
| 10> %cpcm
| 11>  SMD true
| 12>  SMDsolvent "cyclohexane"
| 13> end
| 14> %pal nprocs 4 end
| 15> * xyz 0 1
| 16> F         -0.24810       -1.64740       -1.94630
| 17> B         -0.02410       -1.38450       -0.61380
| 18> F          0.17410       -2.55790        0.07750
| 19> N         -1.23320       -0.61900       -0.01780
| 20> C         -2.48730       -1.04400        0.05700
| 21> C         -3.29420       -0.06750        0.65890
| 22> C         -2.47560        0.99680        0.95860
| 23> C         -1.17200        0.64600        0.52970
| 24> C          0.02230        1.34530        0.59030
| 25> C          1.19590        0.79430        0.10240
| 26> C          2.51470        1.30920        0.05800
| 27> C          3.29980        0.34520       -0.53110
| 28> C          2.45810       -0.73450       -0.83550
| 29> N          1.21500       -0.46570       -0.45960
| 30> H         -2.76280       -2.01260       -0.31430
| 31> H         -4.34690       -0.15340        0.84190
| 32> H         -2.74500        1.92360        1.42590
| 33> H          0.03880        2.33360        1.02470
| 34> H          2.81590        2.27180        0.42210
| 35> H          4.35250        0.39110       -0.72820
| 36> H          2.70190       -1.67060       -1.30040
| 37> *
| 38>
| 39>
| 40> $new_job
| 41> ! b3lyp aug-cc-PVTZ RIJCOSX SP
| 42> %maxcore 4000
| 43> %basis
| 44>  AuxJ "aug-cc-PVTZ/JK"
| 45>  AuxC "aug-cc-PVTZ/C"
| 46>  newGTO H "cc-PVTZ" end
| 47>  newAuxJGTO H "cc-PVTZ/JK" end
| 48>  newAuxCGTO H "cc-PVTZ/C" end
| 49> end
| 50> %cpcm
| 51>  SMD true
| 52>  SMDsolvent "cyclohexane"
| 53> end
| 54> %pal nprocs 4 end
| 55> %tddft
| 56>  nroots 10
| 57>  maxdim 7
| 58> end
| 59> * xyzfile 0 1
| 60>
| 61>                          ****END OF INPUT****
 Total Charge           Charge          ....    0
 Multiplicity           Mult            ....    1
 Number of Electrons    NEL             ....   98
FINAL SINGLE POINT ENERGY      -681.285092692508
FINAL SINGLE POINT ENERGY      -681.286486778474
FINAL SINGLE POINT ENERGY      -681.286602725483
FINAL SINGLE POINT ENERGY      -681.286611456112
FINAL SINGLE POINT ENERGY      -681.286613198843
FINAL SINGLE POINT ENERGY      -681.286613330228
                    ***********************HURRAY********************
FINAL SINGLE POINT ENERGY      -681.286613949902

CARTESIAN COORDINATES (ANGSTROEM)
---------------------------------
  F     -0.239783   -1.738194   -1.934793
  B     -0.019367   -1.415022   -0.597336
  F      0.188217   -2.575600    0.148482
  N     -1.238766   -0.621956   -0.024000
  C     -2.510196   -1.034183    0.036142
  C     -3.312644   -0.052094    0.643811
  C     -2.477106    1.003403    0.966604
  C     -1.175330    0.646300    0.545770
  C      0.026985    1.333787    0.612280
  C      1.204343    0.795804    0.115422
  C      2.517811    1.316912    0.063233
  C      3.310004    0.361904   -0.550610
  C      2.470996   -0.722900   -0.861583
  N      1.218291   -0.468420   -0.466481
  H     -2.797970   -1.999036   -0.349683
  H     -4.373020   -0.127828    0.815562
  H     -2.741784    1.932380    1.444835
  H      0.045806    2.318504    1.059104
  H      2.817608    2.282242    0.437368
  H      4.364666    0.418323   -0.760620
  H      2.721037   -1.654526   -1.343507

 Multiplicity           Mult            ....    1
 Number of Electrons    NEL             ....   98
 Basis Dimension        Dim             ....  742

ORBITAL ENERGIES
----------------

  NO   OCC          E(Eh)            E(eV)
   0   2.0000     -24.635158      -670.3567
   1   2.0000     -24.634093      -670.3278
   2   2.0000     -14.356028      -390.6474
   3   2.0000     -14.355984      -390.6462
   4   2.0000     -10.226428      -278.2753
   5   2.0000     -10.225652      -278.2541
   6   2.0000     -10.225632      -278.2536
   7   2.0000     -10.221925      -278.1527
   8   2.0000     -10.221883      -278.1516
   9   2.0000     -10.193300      -277.3738
  10   2.0000     -10.193284      -277.3733
  11   2.0000     -10.181530      -277.0535
  12   2.0000     -10.181512      -277.0530
  13   2.0000      -6.826316      -185.7535
  14   2.0000      -1.172179       -31.8966
  15   2.0000      -1.140790       -31.0425
  16   2.0000      -1.001071       -27.2405
  17   2.0000      -0.984046       -26.7773
  18   2.0000      -0.823183       -22.3999
  19   2.0000      -0.799597       -21.7581
  20   2.0000      -0.787210       -21.4211
  21   2.0000      -0.735845       -20.0234
  22   2.0000      -0.675136       -18.3714
  23   2.0000      -0.614177       -16.7126
  24   2.0000      -0.598846       -16.2954
  25   2.0000      -0.585763       -15.9394
  26   2.0000      -0.584561       -15.9067
  27   2.0000      -0.548826       -14.9343
  28   2.0000      -0.513080       -13.9616
  29   2.0000      -0.509931       -13.8759
  30   2.0000      -0.486436       -13.2366
  31   2.0000      -0.465778       -12.6745
  32   2.0000      -0.455446       -12.3933
  33   2.0000      -0.442365       -12.0374
  34   2.0000      -0.436776       -11.8853
  35   2.0000      -0.436145       -11.8681
  36   2.0000      -0.428656       -11.6643
  37   2.0000      -0.411449       -11.1961
  38   2.0000      -0.406453       -11.0602
  39   2.0000      -0.403211       -10.9719
  40   2.0000      -0.394287       -10.7291
  41   2.0000      -0.380168       -10.3449
  42   2.0000      -0.374953       -10.2030
  43   2.0000      -0.365567        -9.9476
  44   2.0000      -0.350656        -9.5418
  45   2.0000      -0.312234        -8.4963
  46   2.0000      -0.275473        -7.4960
  47   2.0000      -0.268037        -7.2937
  48   2.0000      -0.225896        -6.1469
  49   0.0000      -0.111548        -3.0354
  50   0.0000      -0.003283        -0.0893
  51   0.0000       0.006648         0.1809
  52   0.0000       0.012271         0.3339
  53   0.0000       0.013024         0.3544

MULLIKEN ATOMIC CHARGES
-----------------------
   0 F :   -0.723478
   1 B :    1.060145
   2 F :   -0.719886
   3 N :    0.387923
   4 C :   -0.587311
   5 C :   -0.478962
   6 C :   -0.610206
   7 C :    1.043268
   8 C :   -0.582287
   9 C :    1.069357
  10 C :   -0.621782
  11 C :   -0.478204
  12 C :   -0.587516
  13 N :    0.391235
  14 H :    0.279559
  15 H :    0.224258
  16 H :    0.203683
  17 H :    0.022586
  18 H :    0.204890
  19 H :    0.223293
  20 H :    0.279436
Sum of atomic charges:   -0.0000000

LOEWDIN ATOMIC CHARGES
----------------------
   0 F :    0.460686
   1 B :   -1.635383
   2 F :    0.459287
   3 N :    0.211488
   4 C :   -0.070145
   5 C :   -0.049908
   6 C :   -0.008065
   7 C :   -0.409380
   8 C :    0.131909
   9 C :   -0.409401
  10 C :   -0.007958
  11 C :   -0.049904
  12 C :   -0.070264
  13 N :    0.211481
  14 H :    0.187521
  15 H :    0.154703
  16 H :    0.170442
  17 H :    0.210243
  18 H :    0.170418
  19 H :    0.154694
  20 H :    0.187536

  Mayer bond orders larger than 0.100000
B(  0-F ,  1-B ) :   0.5610 B(  0-F ,  3-N ) :  -0.1176 B(  0-F , 13-N ) :  -0.1255
B(  1-B ,  2-F ) :   0.5514 B(  1-B ,  3-N ) :   0.8056 B(  1-B , 13-N ) :   0.8050
B(  2-F ,  3-N ) :  -0.1040 B(  3-N ,  4-C ) :   1.3520 B(  3-N ,  5-C ) :  -0.2281
B(  3-N ,  6-C ) :  -0.1379 B(  3-N ,  7-C ) :   0.7604 B(  4-C ,  5-C ) :   1.0321
B(  4-C ,  6-C ) :   0.2073 B(  4-C ,  7-C ) :  -0.1321 B(  4-C , 14-H ) :   0.8247
B(  5-C ,  6-C ) :   1.4626 B(  5-C ,  7-C ) :   0.1729 B(  5-C , 15-H ) :   0.9490
B(  6-C ,  7-C ) :   0.5226 B(  6-C , 16-H ) :   1.0572 B(  7-C ,  8-C ) :   0.7538
B(  7-C , 16-H ) :  -0.1108 B(  7-C , 17-H ) :  -0.1587 B(  8-C ,  9-C ) :   0.7497
B(  8-C , 10-C ) :   0.1076 B(  8-C , 17-H ) :   1.3621 B(  9-C , 10-C ) :   0.5002
B(  9-C , 11-C ) :   0.1650 B(  9-C , 12-C ) :  -0.1352 B(  9-C , 13-N ) :   0.7637
B(  9-C , 17-H ) :  -0.1641 B(  9-C , 18-H ) :  -0.1146 B( 10-C , 11-C ) :   1.4626
B( 10-C , 12-C ) :   0.2113 B( 10-C , 13-N ) :  -0.1389 B( 10-C , 18-H ) :   1.0581
B( 11-C , 12-C ) :   1.0283 B( 11-C , 13-N ) :  -0.2264 B( 11-C , 19-H ) :   0.9518
B( 12-C , 13-N ) :   1.3536 B( 12-C , 20-H ) :   0.8239

-----------------------------------------------------------------------------
         ABSORPTION SPECTRUM VIA TRANSITION ELECTRIC DIPOLE MOMENTS
-----------------------------------------------------------------------------
State   Energy    Wavelength  fosc         T2        TX        TY        TZ
        (cm-1)      (nm)                 (au**2)    (au)      (au)      (au)
-----------------------------------------------------------------------------
   1   25623.6    390.3   0.803457348  10.32283  -3.15602  -0.19707   0.56879
   2   30286.6    330.2   0.380417930   4.13511   1.99736   0.12750  -0.35974
   3   31444.1    318.0   0.054796401   0.57371  -0.00589  -0.69123  -0.30963
   4   42816.1    233.6   0.050867946   0.39112  -0.01280  -0.56569  -0.26636
   5   43325.8    230.8   0.000006527   0.00005   0.00663  -0.00163  -0.00172
   6   44512.7    224.7   0.000005736   0.00004   0.00643   0.00059  -0.00086
   7   46122.9    216.8   0.008584014   0.06127   0.04401  -0.10077   0.22176
   8   47387.2    211.0   0.000001014   0.00001   0.00258  -0.00037  -0.00050
   9   49353.4    202.6   0.000576227   0.00384   0.06147   0.00474  -0.00652
  10   49462.5    202.2   0.004560584   0.03035   0.00322   0.15609   0.07733

FINAL SINGLE POINT ENERGY      -681.169864376123

DIPOLE MOMENT
-------------
                                X             Y             Z
Electronic contribution:     -0.09280      -7.51934      -3.12504
Nuclear contribution   :      0.11253       9.38893       3.88635
                        -----------------------------------------
Total Dipole Moment    :      0.01973       1.86959       0.76131
                        -----------------------------------------
Magnitude (a.u.)       :      2.01875
Magnitude (Debye)      :      5.13125

Rotational constants in cm-1:     0.042724     0.021517     0.015629
Rotational constants in MHz :  1280.833449   645.056139   468.537595

                             ****ORCA TERMINATED NORMALLY****
TOTAL RUN TIME: 0 days 1 hours 4 minutes 16 seconds 683 msec
