                         Program Version 5.0.2 -  RELEASE  -
|  1> ! m062x defgrid3 aug-cc-PVTZ RIJCOSX Opt
|  2> %maxcore 4000
|  3> %basis
|  4>  AuxJ "aug-cc-PVTZ/JK"
|  5>  AuxC "aug-cc-PVTZ/C"
|  6>  newGTO H "cc-PVTZ" end
|  7>  newAuxJGTO H "cc-PVTZ/JK" end
|  8>  newAuxCGTO H "cc-PVTZ/C" end
|  9> end
| 10> %cpcm
| 11>  SMD true
| 12>  SMDsolvent "cyclohexane"
| 13> end
| 14> %pal nprocs 4 end
| 15> * xyz 0 1
| 16> F         -0.24810       -1.64740       -1.94630
| 17> B         -0.02410       -1.38450       -0.61380
| 18> F          0.17410       -2.55790        0.07750
| 19> N         -1.23320       -0.61900       -0.01780
| 20> C         -2.48730       -1.04400        0.05700
| 21> C         -3.29420       -0.06750        0.65890
| 22> C         -2.47560        0.99680        0.95860
| 23> C         -1.17200        0.64600        0.52970
| 24> C          0.02230        1.34530        0.59030
| 25> C          1.19590        0.79430        0.10240
| 26> C          2.51470        1.30920        0.05800
| 27> C          3.29980        0.34520       -0.53110
| 28> C          2.45810       -0.73450       -0.83550
| 29> N          1.21500       -0.46570       -0.45960
| 30> H         -2.76280       -2.01260       -0.31430
| 31> H         -4.34690       -0.15340        0.84190
| 32> H         -2.74500        1.92360        1.42590
| 33> H          0.03880        2.33360        1.02470
| 34> H          2.81590        2.27180        0.42210
| 35> H          4.35250        0.39110       -0.72820
| 36> H          2.70190       -1.67060       -1.30040
| 37> *
| 38>
| 39>
| 40> $new_job
| 41> ! m062x defgrid3 aug-cc-PVTZ RIJCOSX SP
| 42> %maxcore 4000
| 43> %basis
| 44>  AuxJ "aug-cc-PVTZ/JK"
| 45>  AuxC "aug-cc-PVTZ/C"
| 46>  newGTO H "cc-PVTZ" end
| 47>  newAuxJGTO H "cc-PVTZ/JK" end
| 48>  newAuxCGTO H "cc-PVTZ/C" end
| 49> end
| 50> %cpcm
| 51>  SMD true
| 52>  SMDsolvent "cyclohexane"
| 53> end
| 54> %pal nprocs 4 end
| 55> %tddft
| 56>  nroots 10
| 57>  maxdim 7
| 58> end
| 59> * xyzfile 0 1
| 60>
| 61>                          ****END OF INPUT****
 Total Charge           Charge          ....    0
 Multiplicity           Mult            ....    1
 Number of Electrons    NEL             ....   98
FINAL SINGLE POINT ENERGY      -681.404269653923
FINAL SINGLE POINT ENERGY      -681.404867108702
FINAL SINGLE POINT ENERGY      -681.404923224138
FINAL SINGLE POINT ENERGY      -681.404925785092
FINAL SINGLE POINT ENERGY      -681.404917482296
FINAL SINGLE POINT ENERGY      -681.404907467240
FINAL SINGLE POINT ENERGY      -681.404902453082
FINAL SINGLE POINT ENERGY      -681.404902633020
                    ***********************HURRAY********************
FINAL SINGLE POINT ENERGY      -681.404902927410

CARTESIAN COORDINATES (ANGSTROEM)
---------------------------------
  F     -0.260478   -1.579847   -2.006714
  B     -0.031023   -1.386644   -0.655142
  F      0.160406   -2.600885   -0.022316
  N     -1.230062   -0.621433   -0.013981
  C     -2.483210   -1.056532    0.088194
  C     -3.292946   -0.075525    0.688860
  C     -2.473716    1.003418    0.956715
  C     -1.178290    0.658971    0.515444
  C      0.015772    1.358749    0.560270
  C      1.195336    0.807838    0.088532
  C      2.511665    1.315655    0.056766
  C      3.309612    0.337633   -0.503095
  C      2.465956   -0.747070   -0.803938
  N      1.213485   -0.468170   -0.452919
  H     -2.754474   -2.038943   -0.266623
  H     -4.345722   -0.169950    0.892370
  H     -2.740909    1.940805    1.417157
  H      0.028563    2.355835    0.980516
  H      2.807823    2.288533    0.414162
  H      4.370287    0.375083   -0.682320
  H      2.711723   -1.697721   -1.251935

 Multiplicity           Mult            ....    1
 Number of Electrons    NEL             ....   98
 Basis Dimension        Dim             ....  742

ORBITAL ENERGIES
----------------

  NO   OCC          E(Eh)            E(eV)
   0   2.0000     -25.197065      -685.6470
   1   2.0000     -25.195381      -685.6012
   2   2.0000     -14.789081      -402.4314
   3   2.0000     -14.788935      -402.4274
   4   2.0000     -10.600231      -288.4469
   5   2.0000     -10.595552      -288.3196
   6   2.0000     -10.595495      -288.3181
   7   2.0000     -10.587682      -288.1055
   8   2.0000     -10.587634      -288.1042
   9   2.0000     -10.562087      -287.4090
  10   2.0000     -10.562051      -287.4080
  11   2.0000     -10.547651      -287.0162
  12   2.0000     -10.547627      -287.0155
  13   2.0000      -7.128234      -193.9691
  14   2.0000      -1.322358       -35.9832
  15   2.0000      -1.289360       -35.0853
  16   2.0000      -1.119076       -30.4516
  17   2.0000      -1.100093       -29.9350
  18   2.0000      -0.927408       -25.2361
  19   2.0000      -0.902111       -24.5477
  20   2.0000      -0.888271       -24.1711
  21   2.0000      -0.831745       -22.6329
  22   2.0000      -0.765515       -20.8307
  23   2.0000      -0.702413       -19.1136
  24   2.0000      -0.685902       -18.6643
  25   2.0000      -0.669985       -18.2312
  26   2.0000      -0.665526       -18.1099
  27   2.0000      -0.629169       -17.1206
  28   2.0000      -0.604961       -16.4618
  29   2.0000      -0.587578       -15.9888
  30   2.0000      -0.581293       -15.8178
  31   2.0000      -0.546756       -14.8780
  32   2.0000      -0.537826       -14.6350
  33   2.0000      -0.518553       -14.1105
  34   2.0000      -0.513364       -13.9693
  35   2.0000      -0.511173       -13.9097
  36   2.0000      -0.506523       -13.7832
  37   2.0000      -0.485248       -13.2043
  38   2.0000      -0.474477       -12.9112
  39   2.0000      -0.473829       -12.8935
  40   2.0000      -0.468935       -12.7604
  41   2.0000      -0.463212       -12.6046
  42   2.0000      -0.455869       -12.4048
  43   2.0000      -0.447073       -12.1655
  44   2.0000      -0.423486       -11.5236
  45   2.0000      -0.372032       -10.1235
  46   2.0000      -0.334625        -9.1056
  47   2.0000      -0.326536        -8.8855
  48   2.0000      -0.269254        -7.3268
  49   0.0000      -0.088053        -2.3960
  50   0.0000      -0.000692        -0.0188
  51   0.0000       0.008538         0.2323
  52   0.0000       0.013120         0.3570
  53   0.0000       0.019459         0.5295

MULLIKEN ATOMIC CHARGES
-----------------------
   0 F :   -0.565191
   1 B :    0.862460
   2 F :   -0.566683
   3 N :    0.370610
   4 C :   -0.510969
   5 C :   -0.554367
   6 C :   -0.580334
   7 C :    1.291133
   8 C :   -0.926532
   9 C :    1.312363
  10 C :   -0.592537
  11 C :   -0.554496
  12 C :   -0.518127
  13 N :    0.363943
  14 H :    0.291522
  15 H :    0.139354
  16 H :    0.150592
  17 H :    0.007694
  18 H :    0.149572
  19 H :    0.140535
  20 H :    0.289458
Sum of atomic charges:   -0.0000000

LOEWDIN ATOMIC CHARGES
----------------------
   0 F :    0.471740
   1 B :   -1.670309
   2 F :    0.473432
   3 N :    0.207261
   4 C :   -0.069028
   5 C :   -0.046298
   6 C :   -0.008626
   7 C :   -0.417197
   8 C :    0.137512
   9 C :   -0.417048
  10 C :   -0.008490
  11 C :   -0.046196
  12 C :   -0.068998
  13 N :    0.206536
  14 H :    0.192388
  15 H :    0.155199
  16 H :    0.173112
  17 H :    0.214177
  18 H :    0.173039
  19 H :    0.155178
  20 H :    0.192616

  Mayer bond orders larger than 0.100000
B(  0-F ,  1-B ) :   0.6167 B(  1-B ,  2-F ) :   0.6561 B(  1-B ,  3-N ) :   0.9540
B(  1-B , 13-N ) :   0.9550 B(  3-N ,  4-C ) :   1.3484 B(  3-N ,  5-C ) :  -0.3315
B(  3-N ,  6-C ) :  -0.1043 B(  3-N ,  7-C ) :   0.6969 B(  4-C ,  5-C ) :   0.8434
B(  4-C ,  6-C ) :   0.1422 B(  4-C ,  7-C ) :  -0.2024 B(  4-C , 14-H ) :   0.9033
B(  5-C ,  6-C ) :   1.3797 B(  5-C ,  7-C ) :   0.2302 B(  5-C , 15-H ) :   1.1083
B(  6-C ,  7-C ) :   0.2941 B(  6-C , 16-H ) :   1.1952 B(  7-C ,  8-C ) :   0.3956
B(  7-C ,  9-C ) :   0.3114 B(  7-C , 16-H ) :  -0.2455 B(  7-C , 17-H ) :  -0.2391
B(  8-C ,  9-C ) :   0.3866 B(  8-C , 17-H ) :   1.4747 B(  9-C , 10-C ) :   0.2657
B(  9-C , 11-C ) :   0.2220 B(  9-C , 12-C ) :  -0.1872 B(  9-C , 13-N ) :   0.7035
B(  9-C , 17-H ) :  -0.2436 B(  9-C , 18-H ) :  -0.2511 B( 10-C , 11-C ) :   1.3796
B( 10-C , 12-C ) :   0.1428 B( 10-C , 13-N ) :  -0.1028 B( 10-C , 18-H ) :   1.1979
B( 11-C , 12-C ) :   0.8404 B( 11-C , 13-N ) :  -0.3280 B( 11-C , 19-H ) :   1.1060
B( 12-C , 13-N ) :   1.3607 B( 12-C , 20-H ) :   0.9056

-----------------------------------------------------------------------------
         ABSORPTION SPECTRUM VIA TRANSITION ELECTRIC DIPOLE MOMENTS
-----------------------------------------------------------------------------
State   Energy    Wavelength  fosc         T2        TX        TY        TZ
        (cm-1)      (nm)                 (au**2)    (au)      (au)      (au)
-----------------------------------------------------------------------------
   1   25080.4    398.7   0.901601847  11.83466   3.37923   0.21250  -0.60854
   2   34090.3    293.3   0.192985251   1.86367  -1.34103  -0.08880   0.23960
   3   36012.7    277.7   0.080805140   0.73868   0.00425   0.78919   0.34035
   4   44676.0    223.8   0.000014763   0.00011  -0.01028  -0.00043   0.00173
   5   47649.0    209.9   0.136452054   0.94276  -0.00783  -0.90215  -0.35892
   6   48534.3    206.0   0.010150914   0.06885  -0.04897   0.09511  -0.23960
   7   49208.6    203.2   0.000000768   0.00001  -0.00127  -0.00122   0.00143
   8   49509.7    202.0   0.000001112   0.00001   0.00200  -0.00138  -0.00122
   9   49997.1    200.0   0.000195183   0.00129  -0.03494  -0.00286   0.00751
  10   51525.8    194.1   0.000032349   0.00021  -0.01393  -0.00027   0.00354

FINAL SINGLE POINT ENERGY      -681.290628277695

DIPOLE MOMENT
-------------
                                X             Y             Z
Electronic contribution:     -0.17478      -7.29336      -3.52800
Nuclear contribution   :      0.22060       9.08995       4.42117
                        -----------------------------------------
Total Dipole Moment    :      0.04582       1.79659       0.89317
                        -----------------------------------------
Magnitude (a.u.)       :      2.00689
Magnitude (Debye)      :      5.10110

Rotational constants in cm-1:     0.043012     0.021682     0.015739
Rotational constants in MHz :  1289.469337   650.018219   471.857232

                             ****ORCA TERMINATED NORMALLY****
TOTAL RUN TIME: 0 days 2 hours 30 minutes 34 seconds 560 msec
