                         Program Version 5.0.2 -  RELEASE  -
|  1> ! pbe0 d3bj aug-cc-PVTZ RIJCOSX Opt
|  2> %maxcore 4000
|  3> %basis
|  4>  AuxJ "aug-cc-PVTZ/JK"
|  5>  AuxC "aug-cc-PVTZ/C"
|  6>  newGTO H "cc-PVTZ" end
|  7>  newAuxJGTO H "cc-PVTZ/JK" end
|  8>  newAuxCGTO H "cc-PVTZ/C" end
|  9> end
| 10> %cpcm
| 11>  SMD true
| 12>  SMDsolvent "cyclohexane"
| 13> end
| 14> %pal nprocs 4 end
| 15> * xyz 0 1
| 16> F         -0.24810       -1.64740       -1.94630
| 17> B         -0.02410       -1.38450       -0.61380
| 18> F          0.17410       -2.55790        0.07750
| 19> N         -1.23320       -0.61900       -0.01780
| 20> C         -2.48730       -1.04400        0.05700
| 21> C         -3.29420       -0.06750        0.65890
| 22> C         -2.47560        0.99680        0.95860
| 23> C         -1.17200        0.64600        0.52970
| 24> C          0.02230        1.34530        0.59030
| 25> C          1.19590        0.79430        0.10240
| 26> C          2.51470        1.30920        0.05800
| 27> C          3.29980        0.34520       -0.53110
| 28> C          2.45810       -0.73450       -0.83550
| 29> N          1.21500       -0.46570       -0.45960
| 30> H         -2.76280       -2.01260       -0.31430
| 31> H         -4.34690       -0.15340        0.84190
| 32> H         -2.74500        1.92360        1.42590
| 33> H          0.03880        2.33360        1.02470
| 34> H          2.81590        2.27180        0.42210
| 35> H          4.35250        0.39110       -0.72820
| 36> H          2.70190       -1.67060       -1.30040
| 37> *
| 38>
| 39>
| 40> $new_job
| 41> ! b2gp-plyp aug-cc-PVTZ RIJCOSX SP
| 42> %maxcore 4000
| 43> %basis
| 44>  AuxJ "aug-cc-PVTZ/JK"
| 45>  AuxC "aug-cc-PVTZ/C"
| 46>  newGTO H "cc-PVTZ" end
| 47>  newAuxJGTO H "cc-PVTZ/JK" end
| 48>  newAuxCGTO H "cc-PVTZ/C" end
| 49> end
| 50> %cpcm
| 51>  SMD true
| 52>  SMDsolvent "cyclohexane"
| 53> end
| 54> %pal nprocs 4 end
| 55> %tddft
| 56>  nroots 10
| 57>  maxdim 7
| 58> end
| 59> * xyzfile 0 1
| 60>
| 61>                          ****END OF INPUT****
 Total Charge           Charge          ....    0
 Multiplicity           Mult            ....    1
 Number of Electrons    NEL             ....   98
Dispersion correction           -0.022227457
FINAL SINGLE POINT ENERGY      -680.910150274904
Dispersion correction            ... done
Dispersion correction           -0.022221051
FINAL SINGLE POINT ENERGY      -680.910741202121
Dispersion correction            ... done
Dispersion correction           -0.022218198
FINAL SINGLE POINT ENERGY      -680.910801084712
Dispersion correction            ... done
FINAL SINGLE POINT ENERGY      -680.910806381559
Dispersion correction            ... done
Dispersion correction           -0.022217167
FINAL SINGLE POINT ENERGY      -680.910809643016
Dispersion correction            ... done
                    ***********************HURRAY********************
Dispersion correction           -0.022217579
FINAL SINGLE POINT ENERGY      -680.910810615481

CARTESIAN COORDINATES (ANGSTROEM)
---------------------------------
  F     -0.238033   -1.723503   -1.925584
  B     -0.019229   -1.406909   -0.594163
  F      0.185627   -2.560228    0.149224
  N     -1.231411   -0.616078   -0.023412
  C     -2.495591   -1.032510    0.034049
  C     -3.301088   -0.055656    0.640287
  C     -2.469828    0.999514    0.963794
  C     -1.171304    0.644645    0.543836
  C      0.026885    1.332528    0.611158
  C      1.200202    0.793339    0.115214
  C      2.510264    1.312379    0.062197
  C      3.298452    0.356916   -0.550154
  C      2.456964   -0.723713   -0.857202
  N      1.211406   -0.464497   -0.461625
  H     -2.776382   -2.000116   -0.354295
  H     -4.362564   -0.134899    0.811220
  H     -2.735512    1.929197    1.442963
  H      0.045626    2.318602    1.057756
  H      2.810777    2.279232    0.435512
  H      4.354091    0.410627   -0.762134
  H      2.700446   -1.659070   -1.338643

 Multiplicity           Mult            ....    1
 Number of Electrons    NEL             ....   98
 Basis Dimension        Dim             ....  742

ORBITAL ENERGIES
----------------

  NO   OCC          E(Eh)            E(eV)
   0   2.0000     -25.551139      -695.2818
   1   2.0000     -25.549974      -695.2501
   2   2.0000     -15.064469      -409.9250
   3   2.0000     -15.064441      -409.9243
   4   2.0000     -10.839816      -294.9664
   5   2.0000     -10.834214      -294.8139
   6   2.0000     -10.834195      -294.8134
   7   2.0000     -10.821112      -294.4574
   8   2.0000     -10.821075      -294.4564
   9   2.0000     -10.800577      -293.8986
  10   2.0000     -10.800550      -293.8979
  11   2.0000     -10.781364      -293.3758
  12   2.0000     -10.781326      -293.3748
  13   2.0000      -7.314678      -199.0425
  14   2.0000      -1.402478       -38.1634
  15   2.0000      -1.369028       -37.2531
  16   2.0000      -1.190395       -32.3923
  17   2.0000      -1.170211       -31.8431
  18   2.0000      -0.987570       -26.8732
  19   2.0000      -0.962246       -26.1840
  20   2.0000      -0.947998       -25.7963
  21   2.0000      -0.886544       -24.1241
  22   2.0000      -0.814383       -22.1605
  23   2.0000      -0.742495       -20.2043
  24   2.0000      -0.724085       -19.7033
  25   2.0000      -0.709948       -19.3187
  26   2.0000      -0.705398       -19.1949
  27   2.0000      -0.663754       -18.0617
  28   2.0000      -0.636625       -17.3234
  29   2.0000      -0.622867       -16.9491
  30   2.0000      -0.608767       -16.5654
  31   2.0000      -0.577675       -15.7193
  32   2.0000      -0.567560       -15.4441
  33   2.0000      -0.542840       -14.7714
  34   2.0000      -0.537937       -14.6380
  35   2.0000      -0.535642       -14.5756
  36   2.0000      -0.534287       -14.5387
  37   2.0000      -0.514354       -13.9963
  38   2.0000      -0.504850       -13.7377
  39   2.0000      -0.500353       -13.6153
  40   2.0000      -0.495378       -13.4799
  41   2.0000      -0.490064       -13.3353
  42   2.0000      -0.487063       -13.2537
  43   2.0000      -0.475040       -12.9265
  44   2.0000      -0.450602       -12.2615
  45   2.0000      -0.372098       -10.1253
  46   2.0000      -0.336756        -9.1636
  47   2.0000      -0.328170        -8.9300
  48   2.0000      -0.262221        -7.1354
  49   0.0000      -0.052220        -1.4210
  50   0.0000       0.021012         0.5718
  51   0.0000       0.028565         0.7773
  52   0.0000       0.035345         0.9618
  53   0.0000       0.041811         1.1377

MULLIKEN ATOMIC CHARGES
-----------------------
   0 F :   -0.721730
   1 B :    1.086436
   2 F :   -0.717276
   3 N :    0.453901
   4 C :   -0.650809
   5 C :   -0.594928
   6 C :   -0.618847
   7 C :    0.926027
   8 C :   -0.547843
   9 C :    0.992449
  10 C :   -0.651107
  11 C :   -0.592618
  12 C :   -0.651458
  13 N :    0.464963
  14 H :    0.335609
  15 H :    0.281065
  16 H :    0.261862
  17 H :    0.065920
  18 H :    0.265083
  19 H :    0.276613
  20 H :    0.336687
Sum of atomic charges:   -0.0000000

LOEWDIN ATOMIC CHARGES
----------------------
   0 F :    0.443171
   1 B :   -1.632466
   2 F :    0.441625
   3 N :    0.207952
   4 C :   -0.063284
   5 C :   -0.048384
   6 C :   -0.005452
   7 C :   -0.418232
   8 C :    0.144118
   9 C :   -0.418254
  10 C :   -0.005397
  11 C :   -0.048396
  12 C :   -0.063455
  13 N :    0.208074
  14 H :    0.192474
  15 H :    0.155518
  16 H :    0.173785
  17 H :    0.214860
  18 H :    0.173794
  19 H :    0.155500
  20 H :    0.192448

  Mayer bond orders larger than 0.100000
B(  0-F ,  1-B ) :   0.5564 B(  0-F , 13-N ) :  -0.1092 B(  1-B ,  2-F ) :   0.5527
B(  1-B ,  3-N ) :   0.8283 B(  1-B , 13-N ) :   0.8309 B(  3-N ,  4-C ) :   1.3294
B(  3-N ,  5-C ) :  -0.3154 B(  3-N ,  6-C ) :  -0.1500 B(  3-N ,  7-C ) :   0.7232
B(  4-C ,  5-C ) :   1.0198 B(  4-C ,  6-C ) :   0.1867 B(  4-C ,  7-C ) :  -0.1455
B(  4-C , 14-H ) :   0.8149 B(  5-C ,  6-C ) :   1.4815 B(  5-C ,  7-C ) :   0.2181
B(  5-C , 15-H ) :   0.9396 B(  6-C ,  7-C ) :   0.5766 B(  6-C , 16-H ) :   1.0548
B(  7-C ,  8-C ) :   0.7136 B(  7-C ,  9-C ) :   0.1077 B(  7-C , 16-H ) :  -0.1135
B(  7-C , 17-H ) :  -0.1555 B(  8-C ,  9-C ) :   0.7084 B(  8-C , 17-H ) :   1.3684
B(  9-C , 10-C ) :   0.5211 B(  9-C , 11-C ) :   0.1928 B(  9-C , 12-C ) :  -0.1524
B(  9-C , 13-N ) :   0.7343 B(  9-C , 17-H ) :  -0.1690 B(  9-C , 18-H ) :  -0.1222
B( 10-C , 11-C ) :   1.4779 B( 10-C , 12-C ) :   0.1979 B( 10-C , 13-N ) :  -0.1552
B( 10-C , 18-H ) :   1.0568 B( 11-C , 12-C ) :   1.0112 B( 11-C , 13-N ) :  -0.3105
B( 11-C , 19-H ) :   0.9511 B( 12-C , 13-N ) :   1.3357 B( 12-C , 20-H ) :   0.8110

MP2 TOTAL ENERGY:     -681.029036753 Eh

-----------------------------------------------------------------------------
         ABSORPTION SPECTRUM VIA TRANSITION ELECTRIC DIPOLE MOMENTS
-----------------------------------------------------------------------------
State   Energy    Wavelength  fosc         T2        TX        TY        TZ
        (cm-1)      (nm)                 (au**2)    (au)      (au)      (au)
-----------------------------------------------------------------------------
   1   23237.2    430.3   0.881992703  12.49556   3.47237   0.21696  -0.62543
   2   31088.9    321.7   0.114869181   1.21639  -1.08309  -0.06958   0.19616
   3   32707.7    305.7   0.091169434   0.91764   0.01488   0.87366   0.39261
   4   44840.8    223.0   0.000005373   0.00004  -0.00619  -0.00021   0.00102
   5   48374.3    206.7   0.012508470   0.08513   0.05348  -0.12690   0.25722
   6   43363.4    230.6   0.185598272   1.40905  -0.02421  -1.07390  -0.50518
   7   49562.6    201.8   0.000000791   0.00001  -0.00226   0.00004   0.00036
   8   50722.6    197.2   0.000041438   0.00027  -0.01553   0.00064   0.00524
   9   52085.6    192.0   0.000020179   0.00013   0.01022  -0.00425  -0.00224
  10   52726.4    189.7   0.027789534   0.17351  -0.07685   0.16917  -0.37281

Dispersion correction           -0.015174807
FINAL SINGLE POINT ENERGY      -679.925416593880

DIPOLE MOMENT
-------------
                                X             Y             Z
Electronic contribution:     -0.09222      -7.37376      -3.06514
Nuclear contribution   :      0.11348       9.31958       3.86073
                        -----------------------------------------
Total Dipole Moment    :      0.02126       1.94581       0.79558
                        -----------------------------------------
Magnitude (a.u.)       :      2.10229
Magnitude (Debye)      :      5.34358

Rotational constants in cm-1:     0.043136     0.021690     0.015764
Rotational constants in MHz :  1293.180026   650.243423   472.589998

                             ****ORCA TERMINATED NORMALLY****
TOTAL RUN TIME: 0 days 0 hours 59 minutes 50 seconds 630 msec
