                         Program Version 5.0.2 -  RELEASE  -
|  1> ! pbe0 d3bj aug-cc-PVTZ RIJCOSX Opt
|  2> %maxcore 4000
|  3> %basis
|  4>  AuxJ "aug-cc-PVTZ/JK"
|  5>  AuxC "aug-cc-PVTZ/C"
|  6>  newGTO H "cc-PVTZ" end
|  7>  newAuxJGTO H "cc-PVTZ/JK" end
|  8>  newAuxCGTO H "cc-PVTZ/C" end
|  9> end
| 10> %cpcm
| 11>  SMD true
| 12>  SMDsolvent "cyclohexane"
| 13> end
| 14> %pal nprocs 4 end
| 15> * xyz 0 1
| 16> F         -0.24810       -1.64740       -1.94630
| 17> B         -0.02410       -1.38450       -0.61380
| 18> F          0.17410       -2.55790        0.07750
| 19> N         -1.23320       -0.61900       -0.01780
| 20> C         -2.48730       -1.04400        0.05700
| 21> C         -3.29420       -0.06750        0.65890
| 22> C         -2.47560        0.99680        0.95860
| 23> C         -1.17200        0.64600        0.52970
| 24> C          0.02230        1.34530        0.59030
| 25> C          1.19590        0.79430        0.10240
| 26> C          2.51470        1.30920        0.05800
| 27> C          3.29980        0.34520       -0.53110
| 28> C          2.45810       -0.73450       -0.83550
| 29> N          1.21500       -0.46570       -0.45960
| 30> H         -2.76280       -2.01260       -0.31430
| 31> H         -4.34690       -0.15340        0.84190
| 32> H         -2.74500        1.92360        1.42590
| 33> H          0.03880        2.33360        1.02470
| 34> H          2.81590        2.27180        0.42210
| 35> H          4.35250        0.39110       -0.72820
| 36> H          2.70190       -1.67060       -1.30040
| 37> *
| 38>
| 39>
| 40> $new_job
| 41> ! b2plyp aug-cc-PVTZ RIJCOSX SP
| 42> %maxcore 4000
| 43> %basis
| 44>  AuxJ "aug-cc-PVTZ/JK"
| 45>  AuxC "aug-cc-PVTZ/C"
| 46>  newGTO H "cc-PVTZ" end
| 47>  newAuxJGTO H "cc-PVTZ/JK" end
| 48>  newAuxCGTO H "cc-PVTZ/C" end
| 49> end
| 50> %cpcm
| 51>  SMD true
| 52>  SMDsolvent "cyclohexane"
| 53> end
| 54> %pal nprocs 4 end
| 55> %tddft
| 56>  nroots 10
| 57>  maxdim 7
| 58> end
| 59> * xyzfile 0 1
| 60>
| 61>                          ****END OF INPUT****
 Total Charge           Charge          ....    0
 Multiplicity           Mult            ....    1
 Number of Electrons    NEL             ....   98
Dispersion correction           -0.022227457
FINAL SINGLE POINT ENERGY      -680.910150274904
Dispersion correction            ... done
Dispersion correction           -0.022221051
FINAL SINGLE POINT ENERGY      -680.910741202121
Dispersion correction            ... done
Dispersion correction           -0.022218198
FINAL SINGLE POINT ENERGY      -680.910801084712
Dispersion correction            ... done
FINAL SINGLE POINT ENERGY      -680.910806381559
Dispersion correction            ... done
Dispersion correction           -0.022217167
FINAL SINGLE POINT ENERGY      -680.910809643016
Dispersion correction            ... done
                    ***********************HURRAY********************
Dispersion correction           -0.022217579
FINAL SINGLE POINT ENERGY      -680.910810615481

CARTESIAN COORDINATES (ANGSTROEM)
---------------------------------
  F     -0.238033   -1.723503   -1.925584
  B     -0.019229   -1.406909   -0.594163
  F      0.185627   -2.560228    0.149224
  N     -1.231411   -0.616078   -0.023412
  C     -2.495591   -1.032510    0.034049
  C     -3.301088   -0.055656    0.640287
  C     -2.469828    0.999514    0.963794
  C     -1.171304    0.644645    0.543836
  C      0.026885    1.332528    0.611158
  C      1.200202    0.793339    0.115214
  C      2.510264    1.312379    0.062197
  C      3.298452    0.356916   -0.550154
  C      2.456964   -0.723713   -0.857202
  N      1.211406   -0.464497   -0.461625
  H     -2.776382   -2.000116   -0.354295
  H     -4.362564   -0.134899    0.811220
  H     -2.735512    1.929197    1.442963
  H      0.045626    2.318602    1.057756
  H      2.810777    2.279232    0.435512
  H      4.354091    0.410627   -0.762134
  H      2.700446   -1.659070   -1.338643

 Multiplicity           Mult            ....    1
 Number of Electrons    NEL             ....   98
 Basis Dimension        Dim             ....  742

ORBITAL ENERGIES
----------------

  NO   OCC          E(Eh)            E(eV)
   0   2.0000     -25.309415      -688.7042
   1   2.0000     -25.308292      -688.6736
   2   2.0000     -14.876833      -404.8192
   3   2.0000     -14.876807      -404.8185
   4   2.0000     -10.677217      -290.5419
   5   2.0000     -10.672739      -290.4200
   6   2.0000     -10.672722      -290.4195
   7   2.0000     -10.662177      -290.1326
   8   2.0000     -10.662143      -290.1317
   9   2.0000     -10.639411      -289.5131
  10   2.0000     -10.639386      -289.5124
  11   2.0000     -10.622478      -289.0523
  12   2.0000     -10.622443      -289.0514
  13   2.0000      -7.184533      -195.5011
  14   2.0000      -1.340489       -36.4766
  15   2.0000      -1.307402       -35.5762
  16   2.0000      -1.139959       -31.0199
  17   2.0000      -1.120538       -30.4914
  18   2.0000      -0.943222       -25.6664
  19   2.0000      -0.918252       -24.9869
  20   2.0000      -0.904403       -24.6100
  21   2.0000      -0.845633       -23.0108
  22   2.0000      -0.776363       -21.1259
  23   2.0000      -0.707488       -19.2517
  24   2.0000      -0.690134       -18.7795
  25   2.0000      -0.675738       -18.3878
  26   2.0000      -0.672523       -18.3003
  27   2.0000      -0.632284       -17.2053
  28   2.0000      -0.602070       -16.3832
  29   2.0000      -0.592185       -16.1142
  30   2.0000      -0.575189       -15.6517
  31   2.0000      -0.546525       -14.8717
  32   2.0000      -0.535928       -14.5833
  33   2.0000      -0.515345       -14.0232
  34   2.0000      -0.509676       -13.8690
  35   2.0000      -0.508660       -13.8413
  36   2.0000      -0.503832       -13.7100
  37   2.0000      -0.484942       -13.1959
  38   2.0000      -0.478305       -13.0154
  39   2.0000      -0.473147       -12.8750
  40   2.0000      -0.465205       -12.6589
  41   2.0000      -0.461175       -12.5492
  42   2.0000      -0.455634       -12.3984
  43   2.0000      -0.448068       -12.1926
  44   2.0000      -0.423188       -11.5155
  45   2.0000      -0.355357        -9.6697
  46   2.0000      -0.319506        -8.6942
  47   2.0000      -0.311131        -8.4663
  48   2.0000      -0.251289        -6.8379
  49   0.0000      -0.067251        -1.8300
  50   0.0000       0.015393         0.4189
  51   0.0000       0.023591         0.6419
  52   0.0000       0.030337         0.8255
  53   0.0000       0.037787         1.0282

MULLIKEN ATOMIC CHARGES
-----------------------
   0 F :   -0.723910
   1 B :    1.082521
   2 F :   -0.719658
   3 N :    0.441652
   4 C :   -0.638276
   5 C :   -0.564636
   6 C :   -0.618524
   7 C :    0.955836
   8 C :   -0.553197
   9 C :    1.012108
  10 C :   -0.645152
  11 C :   -0.563067
  12 C :   -0.638690
  13 N :    0.450763
  14 H :    0.320642
  15 H :    0.266462
  16 H :    0.246672
  17 H :    0.054854
  18 H :    0.249352
  19 H :    0.262771
  20 H :    0.321480
Sum of atomic charges:    0.0000000

LOEWDIN ATOMIC CHARGES
----------------------
   0 F :    0.450497
   1 B :   -1.639066
   2 F :    0.449033
   3 N :    0.207817
   4 C :   -0.065137
   5 C :   -0.048442
   6 C :   -0.006069
   7 C :   -0.416898
   8 C :    0.141796
   9 C :   -0.416905
  10 C :   -0.006011
  11 C :   -0.048461
  12 C :   -0.065296
  13 N :    0.207927
  14 H :    0.191787
  15 H :    0.155611
  16 H :    0.173216
  17 H :    0.214020
  18 H :    0.173222
  19 H :    0.155597
  20 H :    0.191763

  Mayer bond orders larger than 0.100000
B(  0-F ,  1-B ) :   0.5563 B(  0-F , 13-N ) :  -0.1135 B(  1-B ,  2-F ) :   0.5521
B(  1-B ,  3-N ) :   0.8225 B(  1-B , 13-N ) :   0.8245 B(  3-N ,  4-C ) :   1.3378
B(  3-N ,  5-C ) :  -0.2946 B(  3-N ,  6-C ) :  -0.1493 B(  3-N ,  7-C ) :   0.7324
B(  4-C ,  5-C ) :   1.0218 B(  4-C ,  6-C ) :   0.1931 B(  4-C ,  7-C ) :  -0.1453
B(  4-C , 14-H ) :   0.8183 B(  5-C ,  6-C ) :   1.4775 B(  5-C ,  7-C ) :   0.2089
B(  5-C , 15-H ) :   0.9422 B(  6-C ,  7-C ) :   0.5615 B(  6-C , 16-H ) :   1.0567
B(  7-C ,  8-C ) :   0.7270 B(  7-C , 16-H ) :  -0.1131 B(  7-C , 17-H ) :  -0.1562
B(  8-C ,  9-C ) :   0.7220 B(  8-C , 17-H ) :   1.3671 B(  9-C , 10-C ) :   0.5143
B(  9-C , 11-C ) :   0.1888 B(  9-C , 12-C ) :  -0.1517 B(  9-C , 13-N ) :   0.7414
B(  9-C , 17-H ) :  -0.1679 B(  9-C , 18-H ) :  -0.1206 B( 10-C , 11-C ) :   1.4739
B( 10-C , 12-C ) :   0.2025 B( 10-C , 13-N ) :  -0.1530 B( 10-C , 18-H ) :   1.0585
B( 11-C , 12-C ) :   1.0145 B( 11-C , 13-N ) :  -0.2906 B( 11-C , 19-H ) :   0.9519
B( 12-C , 13-N ) :   1.3434 B( 12-C , 20-H ) :   0.8151

MP2 TOTAL ENERGY:     -681.152139641 Eh

-----------------------------------------------------------------------------
         ABSORPTION SPECTRUM VIA TRANSITION ELECTRIC DIPOLE MOMENTS
-----------------------------------------------------------------------------
State   Energy    Wavelength  fosc         T2        TX        TY        TZ
        (cm-1)      (nm)                 (au**2)    (au)      (au)      (au)
-----------------------------------------------------------------------------
   1   23536.5    424.9   0.890395065  12.45424   3.46663   0.21652  -0.62438
   2   30195.3    331.2   0.134347945   1.46476  -1.18858  -0.07614   0.21506
   3   31613.6    316.3   0.078194631   0.81429  -0.01360  -0.82317  -0.36946
   4   44171.0    226.4   0.000005333   0.00004  -0.00622  -0.00066   0.00075
   5   42038.6    237.9   0.129961354   1.01775   0.01975   0.91494   0.42456
   6   47459.1    210.7   0.011523739   0.07994   0.05181  -0.10482   0.25742
   7   48662.0    205.5   0.000001254   0.00001   0.00267  -0.00089  -0.00075
   8   50100.1    199.6   0.000060616   0.00040   0.01906   0.00003  -0.00591
   9   51274.5    195.0   0.000020528   0.00013   0.01052  -0.00394  -0.00237
  10   51787.9    193.1   0.025250846   0.16052   0.07350  -0.16289   0.35858

Dispersion correction           -0.020138150
FINAL SINGLE POINT ENERGY      -680.264427336484

DIPOLE MOMENT
-------------
                                X             Y             Z
Electronic contribution:     -0.09257      -7.40109      -3.07683
Nuclear contribution   :      0.11348       9.31958       3.86073
                        -----------------------------------------
Total Dipole Moment    :      0.02091       1.91849       0.78390
                        -----------------------------------------
Magnitude (a.u.)       :      2.07257
Magnitude (Debye)      :      5.26805

Rotational constants in cm-1:     0.043136     0.021690     0.015764
Rotational constants in MHz :  1293.180026   650.243423   472.589998

                             ****ORCA TERMINATED NORMALLY****
TOTAL RUN TIME: 0 days 1 hours 21 minutes 32 seconds 876 msec
