                         Program Version 5.0.2 -  RELEASE  -
|  1> ! pbe0 aug-cc-PVTZ RIJCOSX Opt
|  2> %maxcore 4000
|  3> %basis
|  4>  AuxJ "aug-cc-PVTZ/JK"
|  5>  AuxC "aug-cc-PVTZ/C"
|  6>  newGTO H "cc-PVTZ" end
|  7>  newAuxJGTO H "cc-PVTZ/JK" end
|  8>  newAuxCGTO H "cc-PVTZ/C" end
|  9> end
| 10> %cpcm
| 11>  SMD true
| 12>  SMDsolvent "cyclohexane"
| 13> end
| 14> %pal nprocs 4 end
| 15> * xyz 0 1
| 16> F         -0.24810       -1.64740       -1.94630
| 17> B         -0.02410       -1.38450       -0.61380
| 18> F          0.17410       -2.55790        0.07750
| 19> N         -1.23320       -0.61900       -0.01780
| 20> C         -2.48730       -1.04400        0.05700
| 21> C         -3.29420       -0.06750        0.65890
| 22> C         -2.47560        0.99680        0.95860
| 23> C         -1.17200        0.64600        0.52970
| 24> C          0.02230        1.34530        0.59030
| 25> C          1.19590        0.79430        0.10240
| 26> C          2.51470        1.30920        0.05800
| 27> C          3.29980        0.34520       -0.53110
| 28> C          2.45810       -0.73450       -0.83550
| 29> N          1.21500       -0.46570       -0.45960
| 30> H         -2.76280       -2.01260       -0.31430
| 31> H         -4.34690       -0.15340        0.84190
| 32> H         -2.74500        1.92360        1.42590
| 33> H          0.03880        2.33360        1.02470
| 34> H          2.81590        2.27180        0.42210
| 35> H          4.35250        0.39110       -0.72820
| 36> H          2.70190       -1.67060       -1.30040
| 37> *
| 38>
| 39>
| 40> $new_job
| 41> ! pbe0 aug-cc-PVTZ RIJCOSX SP
| 42> %maxcore 4000
| 43> %basis
| 44>  AuxJ "aug-cc-PVTZ/JK"
| 45>  AuxC "aug-cc-PVTZ/C"
| 46>  newGTO H "cc-PVTZ" end
| 47>  newAuxJGTO H "cc-PVTZ/JK" end
| 48>  newAuxCGTO H "cc-PVTZ/C" end
| 49> end
| 50> %cpcm
| 51>  SMD true
| 52>  SMDsolvent "cyclohexane"
| 53> end
| 54> %pal nprocs 4 end
| 55> %tddft
| 56>  nroots 10
| 57>  maxdim 7
| 58> end
| 59> * xyzfile 0 1
| 60>
| 61>                          ****END OF INPUT****
 Total Charge           Charge          ....    0
 Multiplicity           Mult            ....    1
 Number of Electrons    NEL             ....   98
FINAL SINGLE POINT ENERGY      -680.887922818264
FINAL SINGLE POINT ENERGY      -680.888531639966
FINAL SINGLE POINT ENERGY      -680.888593421155
FINAL SINGLE POINT ENERGY      -680.888598113253
FINAL SINGLE POINT ENERGY      -680.888600949312
                    ***********************HURRAY********************
FINAL SINGLE POINT ENERGY      -680.888601718405

CARTESIAN COORDINATES (ANGSTROEM)
---------------------------------
  F     -0.238182   -1.725586   -1.926950
  B     -0.019325   -1.409170   -0.595474
  F      0.185483   -2.562821    0.147402
  N     -1.232600   -0.617441   -0.023754
  C     -2.497347   -1.031331    0.035227
  C     -3.301775   -0.054162    0.641363
  C     -2.469580    0.999854    0.963841
  C     -1.172010    0.643023    0.543037
  C      0.026804    1.330964    0.610163
  C      1.200782    0.791784    0.114209
  C      2.510026    1.312653    0.062413
  C      3.299293    0.358506   -0.549343
  C      2.458848   -0.722266   -0.856764
  N      1.212545   -0.465688   -0.462450
  H     -2.780789   -1.998702   -0.352325
  H     -4.363364   -0.132824    0.812789
  H     -2.734079    1.930080    1.442970
  H      0.045538    2.317263    1.056793
  H      2.809373    2.279870    0.436182
  H      4.355140    0.412818   -0.760883
  H      2.705018   -1.657024   -1.338445

 Multiplicity           Mult            ....    1
 Number of Electrons    NEL             ....   98
 Basis Dimension        Dim             ....  742

ORBITAL ENERGIES
----------------

  NO   OCC          E(Eh)            E(eV)
   0   2.0000     -24.725664      -672.8195
   1   2.0000     -24.724651      -672.7920
   2   2.0000     -14.428281      -392.6135
   3   2.0000     -14.428267      -392.6131
   4   2.0000     -10.281218      -279.7662
   5   2.0000     -10.278991      -279.7056
   6   2.0000     -10.278976      -279.7052
   7   2.0000     -10.274918      -279.5947
   8   2.0000     -10.274884      -279.5938
   9   2.0000     -10.247279      -278.8426
  10   2.0000     -10.247261      -278.8421
  11   2.0000     -10.235092      -278.5110
  12   2.0000     -10.235063      -278.5102
  13   2.0000      -6.857035      -186.5894
  14   2.0000      -1.206433       -32.8287
  15   2.0000      -1.174024       -31.9468
  16   2.0000      -1.035623       -28.1807
  17   2.0000      -1.018058       -27.7028
  18   2.0000      -0.850800       -23.1514
  19   2.0000      -0.827049       -22.5052
  20   2.0000      -0.813869       -22.1465
  21   2.0000      -0.760730       -20.7005
  22   2.0000      -0.697157       -18.9706
  23   2.0000      -0.636255       -17.3134
  24   2.0000      -0.620386       -16.8816
  25   2.0000      -0.606322       -16.4989
  26   2.0000      -0.603496       -16.4220
  27   2.0000      -0.567867       -15.4524
  28   2.0000      -0.530336       -14.4312
  29   2.0000      -0.527192       -14.3456
  30   2.0000      -0.506312       -13.7774
  31   2.0000      -0.482254       -13.1228
  32   2.0000      -0.471439       -12.8285
  33   2.0000      -0.456869       -12.4320
  34   2.0000      -0.454938       -12.3795
  35   2.0000      -0.450664       -12.2632
  36   2.0000      -0.448378       -12.2010
  37   2.0000      -0.424686       -11.5563
  38   2.0000      -0.419709       -11.4209
  39   2.0000      -0.415713       -11.3121
  40   2.0000      -0.406120       -11.0511
  41   2.0000      -0.397205       -10.8085
  42   2.0000      -0.388994       -10.5851
  43   2.0000      -0.381708       -10.3868
  44   2.0000      -0.364000        -9.9050
  45   2.0000      -0.325892        -8.8680
  46   2.0000      -0.288690        -7.8557
  47   2.0000      -0.281031        -7.6472
  48   2.0000      -0.235895        -6.4190
  49   0.0000      -0.110043        -2.9944
  50   0.0000       0.002690         0.0732
  51   0.0000       0.012934         0.3519
  52   0.0000       0.018533         0.5043
  53   0.0000       0.019211         0.5228

MULLIKEN ATOMIC CHARGES
-----------------------
   0 F :   -0.687595
   1 B :    0.847503
   2 F :   -0.683341
   3 N :    0.402738
   4 C :   -0.615696
   5 C :   -0.480370
   6 C :   -0.617982
   7 C :    0.897242
   8 C :   -0.513250
   9 C :    0.927292
  10 C :   -0.632171
  11 C :   -0.479725
  12 C :   -0.615894
  13 N :    0.407508
  14 H :    0.322803
  15 H :    0.284608
  16 H :    0.269177
  17 H :    0.090581
  18 H :    0.270334
  19 H :    0.283477
  20 H :    0.322763
Sum of atomic charges:   -0.0000000

LOEWDIN ATOMIC CHARGES
----------------------
   0 F :    0.469567
   1 B :   -1.655156
   2 F :    0.468377
   3 N :    0.210472
   4 C :   -0.073091
   5 C :   -0.049422
   6 C :   -0.008579
   7 C :   -0.419429
   8 C :    0.134679
   9 C :   -0.419395
  10 C :   -0.008516
  11 C :   -0.049456
  12 C :   -0.073231
  13 N :    0.210567
  14 H :    0.192128
  15 H :    0.157899
  16 H :    0.174145
  17 H :    0.214289
  18 H :    0.174145
  19 H :    0.157896
  20 H :    0.192110

  Mayer bond orders larger than 0.100000
B(  0-F ,  1-B ) :   0.6013 B(  0-F ,  3-N ) :  -0.1240 B(  0-F , 13-N ) :  -0.1327
B(  1-B ,  2-F ) :   0.5909 B(  1-B ,  3-N ) :   0.8831 B(  1-B , 13-N ) :   0.8833
B(  2-F ,  3-N ) :  -0.1109 B(  2-F , 13-N ) :  -0.1051 B(  3-N ,  4-C ) :   1.4481
B(  3-N ,  5-C ) :  -0.2113 B(  3-N ,  6-C ) :  -0.1183 B(  3-N ,  7-C ) :   0.7758
B(  4-C ,  5-C ) :   1.1119 B(  4-C ,  6-C ) :   0.1925 B(  4-C , 14-H ) :   0.7863
B(  5-C ,  6-C ) :   1.4797 B(  5-C ,  7-C ) :   0.1532 B(  5-C , 15-H ) :   0.8819
B(  6-C ,  7-C ) :   0.6812 B(  6-C , 16-H ) :   0.9703 B(  7-C ,  8-C ) :   0.8302
B(  7-C , 17-H ) :  -0.1180 B(  8-C ,  9-C ) :   0.8266 B(  8-C , 17-H ) :   1.2643
B(  9-C , 10-C ) :   0.6549 B(  9-C , 11-C ) :   0.1444 B(  9-C , 13-N ) :   0.7794
B(  9-C , 17-H ) :  -0.1236 B( 10-C , 11-C ) :   1.4782 B( 10-C , 12-C ) :   0.1969
B( 10-C , 13-N ) :  -0.1195 B( 10-C , 18-H ) :   0.9711 B( 11-C , 12-C ) :   1.1084
B( 11-C , 13-N ) :  -0.2092 B( 11-C , 19-H ) :   0.8855 B( 12-C , 13-N ) :   1.4507
B( 12-C , 20-H ) :   0.7852

-----------------------------------------------------------------------------
         ABSORPTION SPECTRUM VIA TRANSITION ELECTRIC DIPOLE MOMENTS
-----------------------------------------------------------------------------
State   Energy    Wavelength  fosc         T2        TX        TY        TZ
        (cm-1)      (nm)                 (au**2)    (au)      (au)      (au)
-----------------------------------------------------------------------------
   1   25985.5    384.8   0.868218398  10.99952   3.25791   0.20334  -0.58671
   2   31247.1    320.0   0.306997571   3.23445  -1.76643  -0.11234   0.31869
   3   32639.7    306.4   0.058015771   0.58516  -0.00950  -0.69837  -0.31202
   4   44283.1    225.8   0.064481025   0.47937   0.01412   0.62685   0.29364
   5   45412.8    220.2   0.000005575   0.00004  -0.00567   0.00215   0.00190
   6   45602.2    219.3   0.000006675   0.00005   0.00659   0.00216  -0.00035
   7   48486.5    206.2   0.009521022   0.06465   0.04565  -0.10439   0.22730
   8   49591.3    201.6   0.000000709   0.00000   0.00157   0.00142   0.00049
   9   51008.2    196.0   0.001210289   0.00781  -0.08744  -0.00390   0.01226
  10   51178.6    195.4   0.005041748   0.03243  -0.03068   0.09976  -0.14676

FINAL SINGLE POINT ENERGY      -680.770203112091

DIPOLE MOMENT
-------------
                                X             Y             Z
Electronic contribution:     -0.09430      -7.50497      -3.12349
Nuclear contribution   :      0.11428       9.33555       3.87062
                        -----------------------------------------
Total Dipole Moment    :      0.01998       1.83058       0.74713
                        -----------------------------------------
Magnitude (a.u.)       :      1.97728
Magnitude (Debye)      :      5.02585

Rotational constants in cm-1:     0.043101     0.021676     0.015752
Rotational constants in MHz :  1292.121256   649.841376   472.226064

                             ****ORCA TERMINATED NORMALLY****
TOTAL RUN TIME: 0 days 0 hours 51 minutes 29 seconds 319 msec
