                         Program Version 5.0.2 -  RELEASE  -
|  1> ! wb97x-d3 aug-cc-PVTZ RIJCOSX Opt
|  2> %maxcore 4000
|  3> %basis
|  4>  AuxJ "aug-cc-PVTZ/JK"
|  5>  AuxC "aug-cc-PVTZ/C"
|  6>  newGTO H "cc-PVTZ" end
|  7>  newAuxJGTO H "cc-PVTZ/JK" end
|  8>  newAuxCGTO H "cc-PVTZ/C" end
|  9> end
| 10> %cpcm
| 11>  SMD true
| 12>  SMDsolvent "cyclohexane"
| 13> end
| 14> %pal nprocs 4 end
| 15> * xyz 0 1
| 16> F         -0.24810       -1.64740       -1.94630
| 17> B         -0.02410       -1.38450       -0.61380
| 18> F          0.17410       -2.55790        0.07750
| 19> N         -1.23320       -0.61900       -0.01780
| 20> C         -2.48730       -1.04400        0.05700
| 21> C         -3.29420       -0.06750        0.65890
| 22> C         -2.47560        0.99680        0.95860
| 23> C         -1.17200        0.64600        0.52970
| 24> C          0.02230        1.34530        0.59030
| 25> C          1.19590        0.79430        0.10240
| 26> C          2.51470        1.30920        0.05800
| 27> C          3.29980        0.34520       -0.53110
| 28> C          2.45810       -0.73450       -0.83550
| 29> N          1.21500       -0.46570       -0.45960
| 30> H         -2.76280       -2.01260       -0.31430
| 31> H         -4.34690       -0.15340        0.84190
| 32> H         -2.74500        1.92360        1.42590
| 33> H          0.03880        2.33360        1.02470
| 34> H          2.81590        2.27180        0.42210
| 35> H          4.35250        0.39110       -0.72820
| 36> H          2.70190       -1.67060       -1.30040
| 37> *
| 38>
| 39>
| 40> $new_job
| 41> ! wb97x-d3 aug-cc-PVTZ RIJCOSX SP
| 42> %maxcore 4000
| 43> %basis
| 44>  AuxJ "aug-cc-PVTZ/JK"
| 45>  AuxC "aug-cc-PVTZ/C"
| 46>  newGTO H "cc-PVTZ" end
| 47>  newAuxJGTO H "cc-PVTZ/JK" end
| 48>  newAuxCGTO H "cc-PVTZ/C" end
| 49> end
| 50> %cpcm
| 51>  SMD true
| 52>  SMDsolvent "cyclohexane"
| 53> end
| 54> %pal nprocs 4 end
| 55> %tddft
| 56>  nroots 10
| 57>  maxdim 7
| 58> end
| 59> * xyzfile 0 1
| 60>
| 61>                          ****END OF INPUT****
 Total Charge           Charge          ....    0
 Multiplicity           Mult            ....    1
 Number of Electrons    NEL             ....   98
Dispersion correction           -0.007909289
FINAL SINGLE POINT ENERGY      -681.446917535936
Dispersion correction            ... done
Dispersion correction           -0.007904602
FINAL SINGLE POINT ENERGY      -681.447712416263
Dispersion correction            ... done
Dispersion correction           -0.007902036
FINAL SINGLE POINT ENERGY      -681.447802473479
Dispersion correction            ... done
FINAL SINGLE POINT ENERGY      -681.447805451665
Dispersion correction           -0.007901313
FINAL SINGLE POINT ENERGY      -681.447809935545
Dispersion correction            ... done
Dispersion correction           -0.007901567
FINAL SINGLE POINT ENERGY      -681.447810816868
Dispersion correction            ... done
                    ***********************HURRAY********************
Dispersion correction           -0.007901636
FINAL SINGLE POINT ENERGY      -681.447810901019

CARTESIAN COORDINATES (ANGSTROEM)
---------------------------------
  F     -0.240502   -1.731689   -1.929155
  B     -0.018720   -1.411587   -0.593898
  F      0.189465   -2.568568    0.152112
  N     -1.233789   -0.618998   -0.020799
  C     -2.496538   -1.030159    0.034180
  C     -3.301297   -0.052301    0.638289
  C     -2.469185    0.999833    0.964300
  C     -1.171615    0.643853    0.548041
  C      0.027095    1.331212    0.612746
  C      1.201350    0.794422    0.115600
  C      2.509545    1.313040    0.062033
  C      3.298080    0.359059   -0.549930
  C      2.457535   -0.720778   -0.858464
  N      1.214088   -0.465161   -0.463641
  H     -2.779731   -1.996777   -0.353432
  H     -4.362468   -0.129695    0.806681
  H     -2.735619    1.928669    1.443495
  H      0.045615    2.316707    1.059493
  H      2.811909    2.279000    0.434608
  H      4.352927    0.414460   -0.761177
  H      2.701654   -1.654744   -1.341082

 Multiplicity           Mult            ....    1
 Number of Electrons    NEL             ....   98
 Basis Dimension        Dim             ....  742

ORBITAL ENERGIES
----------------

  NO   OCC          E(Eh)            E(eV)
   0   2.0000     -24.738677      -673.1736
   1   2.0000     -24.737596      -673.1442
   2   2.0000     -14.465880      -393.6366
   3   2.0000     -14.465753      -393.6332
   4   2.0000     -10.342242      -281.4267
   5   2.0000     -10.332149      -281.1521
   6   2.0000     -10.332029      -281.1488
   7   2.0000     -10.324606      -280.9468
   8   2.0000     -10.324563      -280.9456
   9   2.0000     -10.301910      -280.3292
  10   2.0000     -10.301791      -280.3260
  11   2.0000     -10.285842      -279.8920
  12   2.0000     -10.285727      -279.8889
  13   2.0000      -6.927873      -188.5170
  14   2.0000      -1.288326       -35.0571
  15   2.0000      -1.255834       -34.1730
  16   2.0000      -1.125127       -30.6162
  17   2.0000      -1.107583       -30.1389
  18   2.0000      -0.944728       -25.7073
  19   2.0000      -0.918738       -25.0001
  20   2.0000      -0.905549       -24.6412
  21   2.0000      -0.851988       -23.1838
  22   2.0000      -0.788138       -21.4463
  23   2.0000      -0.725469       -19.7410
  24   2.0000      -0.709834       -19.3156
  25   2.0000      -0.695032       -18.9128
  26   2.0000      -0.692422       -18.8418
  27   2.0000      -0.655113       -17.8265
  28   2.0000      -0.617725       -16.8091
  29   2.0000      -0.614158       -16.7121
  30   2.0000      -0.592680       -16.1276
  31   2.0000      -0.567927       -15.4541
  32   2.0000      -0.555792       -15.1239
  33   2.0000      -0.542122       -14.7519
  34   2.0000      -0.540628       -14.7112
  35   2.0000      -0.536126       -14.5887
  36   2.0000      -0.534668       -14.5491
  37   2.0000      -0.507410       -13.8073
  38   2.0000      -0.503137       -13.6911
  39   2.0000      -0.498062       -13.5530
  40   2.0000      -0.487637       -13.2693
  41   2.0000      -0.481636       -13.1060
  42   2.0000      -0.470292       -12.7973
  43   2.0000      -0.465633       -12.6705
  44   2.0000      -0.445089       -12.1115
  45   2.0000      -0.404408       -11.0045
  46   2.0000      -0.365337        -9.9413
  47   2.0000      -0.357336        -9.7236
  48   2.0000      -0.297994        -8.1088
  49   0.0000      -0.049070        -1.3353
  50   0.0000       0.040810         1.1105
  51   0.0000       0.045373         1.2347
  52   0.0000       0.050994         1.3876
  53   0.0000       0.054378         1.4797

MULLIKEN ATOMIC CHARGES
-----------------------
   0 F :   -0.652820
   1 B :    1.127281
   2 F :   -0.649628
   3 N :    0.345639
   4 C :   -0.718557
   5 C :   -0.512644
   6 C :   -0.625034
   7 C :    0.953439
   8 C :   -0.496872
   9 C :    0.981309
  10 C :   -0.633006
  11 C :   -0.513474
  12 C :   -0.721889
  13 N :    0.349734
  14 H :    0.334637
  15 H :    0.269472
  16 H :    0.259773
  17 H :    0.038509
  18 H :    0.258900
  19 H :    0.268568
  20 H :    0.336662
Sum of atomic charges:   -0.0000000

LOEWDIN ATOMIC CHARGES
----------------------
   0 F :    0.462656
   1 B :   -1.635468
   2 F :    0.461340
   3 N :    0.202996
   4 C :   -0.072014
   5 C :   -0.048549
   6 C :   -0.009142
   7 C :   -0.416685
   8 C :    0.140576
   9 C :   -0.416648
  10 C :   -0.009135
  11 C :   -0.048747
  12 C :   -0.072260
  13 N :    0.202924
  14 H :    0.191849
  15 H :    0.155994
  16 H :    0.173790
  17 H :    0.214968
  18 H :    0.173706
  19 H :    0.155982
  20 H :    0.191869

  Mayer bond orders larger than 0.100000
B(  0-F ,  1-B ) :   0.5652 B(  1-B ,  2-F ) :   0.5530 B(  1-B ,  3-N ) :   0.7970
B(  1-B , 13-N ) :   0.7989 B(  3-N ,  4-C ) :   1.3137 B(  3-N ,  5-C ) :  -0.2811
B(  3-N ,  6-C ) :  -0.1327 B(  3-N ,  7-C ) :   0.7348 B(  3-N ,  9-C ) :  -0.1054
B(  4-C ,  5-C ) :   0.9757 B(  4-C ,  6-C ) :   0.2150 B(  4-C ,  7-C ) :  -0.1172
B(  4-C , 14-H ) :   0.7645 B(  5-C ,  6-C ) :   1.4065 B(  5-C ,  7-C ) :   0.1425
B(  5-C , 15-H ) :   0.9297 B(  6-C ,  7-C ) :   0.3753 B(  6-C ,  8-C ) :   0.1376
B(  6-C , 16-H ) :   1.0337 B(  7-C ,  8-C ) :   0.5589 B(  7-C ,  9-C ) :   0.1727
B(  7-C , 13-N ) :  -0.1039 B(  7-C , 16-H ) :  -0.1330 B(  7-C , 17-H ) :  -0.2029
B(  8-C ,  9-C ) :   0.5515 B(  8-C , 10-C ) :   0.1489 B(  8-C , 17-H ) :   1.4177
B(  9-C , 10-C ) :   0.3528 B(  9-C , 11-C ) :   0.1335 B(  9-C , 12-C ) :  -0.1265
B(  9-C , 13-N ) :   0.7394 B(  9-C , 17-H ) :  -0.2084 B(  9-C , 18-H ) :  -0.1354
B( 10-C , 11-C ) :   1.4029 B( 10-C , 12-C ) :   0.2213 B( 10-C , 13-N ) :  -0.1346
B( 10-C , 18-H ) :   1.0346 B( 11-C , 12-C ) :   0.9732 B( 11-C , 13-N ) :  -0.2808
B( 11-C , 19-H ) :   0.9348 B( 12-C , 13-N ) :   1.3168 B( 12-C , 20-H ) :   0.7621

-----------------------------------------------------------------------------
         ABSORPTION SPECTRUM VIA TRANSITION ELECTRIC DIPOLE MOMENTS
-----------------------------------------------------------------------------
State   Energy    Wavelength  fosc         T2        TX        TY        TZ
        (cm-1)      (nm)                 (au**2)    (au)      (au)      (au)
-----------------------------------------------------------------------------
   1   24856.2    402.3   0.876970395  11.61518  -3.34773  -0.20991   0.60315
   2   34650.0    288.6   0.152528684   1.44919  -1.18223  -0.07832   0.21306
   3   36774.7    271.9   0.091354264   0.81782  -0.00645  -0.82514  -0.37003
   4   48490.4    206.2   0.197603917   1.34158   0.02514   1.04777   0.49307
   5   48532.9    206.0   0.001600368   0.01086   0.00521  -0.09414  -0.04434
   6   49644.6    201.4   0.000001542   0.00001  -0.00241  -0.00202  -0.00059
   7   53062.4    188.5   0.016798386   0.10422  -0.06115   0.14546  -0.28164
   8   53801.2    185.9   0.000267099   0.00163  -0.03325   0.01919   0.01266
   9   53897.9    185.5   0.168641182   1.03007   0.02090   0.91645   0.43562
  10   54121.3    184.8   0.000136330   0.00083  -0.00696  -0.02559  -0.01123

Dispersion correction           -0.007901636
FINAL SINGLE POINT ENERGY      -681.334557739332

DIPOLE MOMENT
-------------
                                X             Y             Z
Electronic contribution:     -0.09254      -7.45209      -3.08062
Nuclear contribution   :      0.10907       9.35720       3.85682
                        -----------------------------------------
Total Dipole Moment    :      0.01653       1.90511       0.77620
                        -----------------------------------------
Magnitude (a.u.)       :      2.05724
Magnitude (Debye)      :      5.22908

Rotational constants in cm-1:     0.042956     0.021673     0.015741
Rotational constants in MHz :  1287.794079   649.746844   471.891020

                             ****ORCA TERMINATED NORMALLY****
TOTAL RUN TIME: 0 days 1 hours 17 minutes 32 seconds 428 msec
