                         Program Version 5.0.2 -  RELEASE  -
|  1> ! x3lyp aug-cc-PVTZ RIJCOSX Opt
|  2> %maxcore 4000
|  3> %basis
|  4>  AuxJ "aug-cc-PVTZ/JK"
|  5>  AuxC "aug-cc-PVTZ/C"
|  6>  newGTO H "cc-PVTZ" end
|  7>  newAuxJGTO H "cc-PVTZ/JK" end
|  8>  newAuxCGTO H "cc-PVTZ/C" end
|  9> end
| 10> %cpcm
| 11>  SMD true
| 12>  SMDsolvent "cyclohexane"
| 13> end
| 14> %pal nprocs 4 end
| 15> * xyz 0 1
| 16> F         -0.24810       -1.64740       -1.94630
| 17> B         -0.02410       -1.38450       -0.61380
| 18> F          0.17410       -2.55790        0.07750
| 19> N         -1.23320       -0.61900       -0.01780
| 20> C         -2.48730       -1.04400        0.05700
| 21> C         -3.29420       -0.06750        0.65890
| 22> C         -2.47560        0.99680        0.95860
| 23> C         -1.17200        0.64600        0.52970
| 24> C          0.02230        1.34530        0.59030
| 25> C          1.19590        0.79430        0.10240
| 26> C          2.51470        1.30920        0.05800
| 27> C          3.29980        0.34520       -0.53110
| 28> C          2.45810       -0.73450       -0.83550
| 29> N          1.21500       -0.46570       -0.45960
| 30> H         -2.76280       -2.01260       -0.31430
| 31> H         -4.34690       -0.15340        0.84190
| 32> H         -2.74500        1.92360        1.42590
| 33> H          0.03880        2.33360        1.02470
| 34> H          2.81590        2.27180        0.42210
| 35> H          4.35250        0.39110       -0.72820
| 36> H          2.70190       -1.67060       -1.30040
| 37> *
| 38>
| 39>
| 40> $new_job
| 41> ! x3lyp aug-cc-PVTZ RIJCOSX SP
| 42> %maxcore 4000
| 43> %basis
| 44>  AuxJ "aug-cc-PVTZ/JK"
| 45>  AuxC "aug-cc-PVTZ/C"
| 46>  newGTO H "cc-PVTZ" end
| 47>  newAuxJGTO H "cc-PVTZ/JK" end
| 48>  newAuxCGTO H "cc-PVTZ/C" end
| 49> end
| 50> %cpcm
| 51>  SMD true
| 52>  SMDsolvent "cyclohexane"
| 53> end
| 54> %pal nprocs 4 end
| 55> %tddft
| 56>  nroots 10
| 57>  maxdim 7
| 58> end
| 59> * xyzfile 0 1
| 60>
| 61>                          ****END OF INPUT****
 Total Charge           Charge          ....    0
 Multiplicity           Mult            ....    1
 Number of Electrons    NEL             ....   98
FINAL SINGLE POINT ENERGY      -681.124368151637
FINAL SINGLE POINT ENERGY      -681.125516583974
FINAL SINGLE POINT ENERGY      -681.125620875635
FINAL SINGLE POINT ENERGY      -681.125628982633
FINAL SINGLE POINT ENERGY      -681.125631061785
FINAL SINGLE POINT ENERGY      -681.125631569892
                    ***********************HURRAY********************
FINAL SINGLE POINT ENERGY      -681.125632103853

CARTESIAN COORDINATES (ANGSTROEM)
---------------------------------
  F     -0.239355   -1.736966   -1.932282
  B     -0.019269   -1.413426   -0.596344
  F      0.188210   -2.572645    0.148976
  N     -1.237482   -0.621155   -0.023944
  C     -2.507631   -1.033604    0.035584
  C     -3.310261   -0.052457    0.642876
  C     -2.475448    1.002559    0.966012
  C     -1.174424    0.645971    0.545621
  C      0.027006    1.333384    0.612302
  C      1.203456    0.795423    0.115495
  C      2.516129    1.315924    0.063085
  C      3.307509    0.361172   -0.550583
  C      2.468334   -0.722681   -0.861139
  N      1.217001   -0.467769   -0.465943
  H     -2.794638   -1.998302   -0.350504
  H     -4.370329   -0.128488    0.814241
  H     -2.740202    1.931152    1.444257
  H      0.045814    2.317822    1.059039
  H      2.816040    2.280940    0.437052
  H      4.361799    0.417209   -0.760789
  H      2.717541   -1.654264   -1.343015

 Multiplicity           Mult            ....    1
 Number of Electrons    NEL             ....   98
 Basis Dimension        Dim             ....  742

ORBITAL ENERGIES
----------------

  NO   OCC          E(Eh)            E(eV)
   0   2.0000     -24.671381      -671.3424
   1   2.0000     -24.670302      -671.3131
   2   2.0000     -14.383432      -391.3931
   3   2.0000     -14.383383      -391.3917
   4   2.0000     -10.249782      -278.9107
   5   2.0000     -10.248769      -278.8832
   6   2.0000     -10.248747      -278.8826
   7   2.0000     -10.244742      -278.7736
   8   2.0000     -10.244702      -278.7725
   9   2.0000     -10.216335      -278.0006
  10   2.0000     -10.216318      -278.0002
  11   2.0000     -10.204330      -277.6739
  12   2.0000     -10.204310      -277.6734
  13   2.0000      -6.844207      -186.2403
  14   2.0000      -1.181586       -32.1526
  15   2.0000      -1.149919       -31.2909
  16   2.0000      -1.009094       -27.4588
  17   2.0000      -0.991915       -26.9914
  18   2.0000      -0.829930       -22.5835
  19   2.0000      -0.806224       -21.9385
  20   2.0000      -0.793710       -21.5979
  21   2.0000      -0.741890       -20.1879
  22   2.0000      -0.680662       -18.5218
  23   2.0000      -0.619493       -16.8573
  24   2.0000      -0.604065       -16.4375
  25   2.0000      -0.590788       -16.0762
  26   2.0000      -0.589432       -16.0393
  27   2.0000      -0.553580       -15.0637
  28   2.0000      -0.517614       -14.0850
  29   2.0000      -0.514835       -14.0094
  30   2.0000      -0.491629       -13.3779
  31   2.0000      -0.470405       -12.8004
  32   2.0000      -0.459826       -12.5125
  33   2.0000      -0.446571       -12.1518
  34   2.0000      -0.440762       -11.9937
  35   2.0000      -0.440492       -11.9864
  36   2.0000      -0.432996       -11.7824
  37   2.0000      -0.415213       -11.2985
  38   2.0000      -0.410555       -11.1718
  39   2.0000      -0.406943       -11.0735
  40   2.0000      -0.397933       -10.8283
  41   2.0000      -0.385106       -10.4793
  42   2.0000      -0.379183       -10.3181
  43   2.0000      -0.370518       -10.0823
  44   2.0000      -0.354769        -9.6537
  45   2.0000      -0.314845        -8.5674
  46   2.0000      -0.278037        -7.5658
  47   2.0000      -0.270509        -7.3609
  48   2.0000      -0.227383        -6.1874
  49   0.0000      -0.109277        -2.9736
  50   0.0000      -0.003812        -0.1037
  51   0.0000       0.006660         0.1812
  52   0.0000       0.012501         0.3402
  53   0.0000       0.015267         0.4154

MULLIKEN ATOMIC CHARGES
-----------------------
   0 F :   -0.721865
   1 B :    1.049430
   2 F :   -0.718097
   3 N :    0.382631
   4 C :   -0.583458
   5 C :   -0.473656
   6 C :   -0.596774
   7 C :    1.016573
   8 C :   -0.561580
   9 C :    1.043312
  10 C :   -0.608540
  11 C :   -0.473330
  12 C :   -0.582787
  13 N :    0.386258
  14 H :    0.281398
  15 H :    0.224862
  16 H :    0.203819
  17 H :    0.021633
  18 H :    0.205016
  19 H :    0.223847
  20 H :    0.281306
Sum of atomic charges:   -0.0000000

LOEWDIN ATOMIC CHARGES
----------------------
   0 F :    0.462528
   1 B :   -1.641549
   2 F :    0.461119
   3 N :    0.211187
   4 C :   -0.070294
   5 C :   -0.049812
   6 C :   -0.008168
   7 C :   -0.410480
   8 C :    0.132583
   9 C :   -0.410498
  10 C :   -0.008051
  11 C :   -0.049809
  12 C :   -0.070415
  13 N :    0.211156
  14 H :    0.188417
  15 H :    0.155218
  16 H :    0.171125
  17 H :    0.211002
  18 H :    0.171098
  19 H :    0.155209
  20 H :    0.188435

  Mayer bond orders larger than 0.100000
B(  0-F ,  1-B ) :   0.5641 B(  0-F ,  3-N ) :  -0.1179 B(  0-F , 13-N ) :  -0.1264
B(  1-B ,  2-F ) :   0.5557 B(  1-B ,  3-N ) :   0.8083 B(  1-B , 13-N ) :   0.8079
B(  2-F ,  3-N ) :  -0.1053 B(  3-N ,  4-C ) :   1.3647 B(  3-N ,  5-C ) :  -0.2282
B(  3-N ,  6-C ) :  -0.1357 B(  3-N ,  7-C ) :   0.7561 B(  4-C ,  5-C ) :   1.0398
B(  4-C ,  6-C ) :   0.2040 B(  4-C ,  7-C ) :  -0.1280 B(  4-C , 14-H ) :   0.8182
B(  5-C ,  6-C ) :   1.4660 B(  5-C ,  7-C ) :   0.1805 B(  5-C , 15-H ) :   0.9432
B(  6-C ,  7-C ) :   0.5537 B(  6-C , 16-H ) :   1.0502 B(  7-C ,  8-C ) :   0.7646
B(  7-C , 16-H ) :  -0.1034 B(  7-C , 17-H ) :  -0.1563 B(  8-C ,  9-C ) :   0.7611
B(  8-C , 10-C ) :   0.1033 B(  8-C , 17-H ) :   1.3562 B(  9-C , 10-C ) :   0.5315
B(  9-C , 11-C ) :   0.1718 B(  9-C , 12-C ) :  -0.1304 B(  9-C , 13-N ) :   0.7598
B(  9-C , 17-H ) :  -0.1618 B(  9-C , 18-H ) :  -0.1072 B( 10-C , 11-C ) :   1.4653
B( 10-C , 12-C ) :   0.2083 B( 10-C , 13-N ) :  -0.1370 B( 10-C , 18-H ) :   1.0510
B( 11-C , 12-C ) :   1.0358 B( 11-C , 13-N ) :  -0.2261 B( 11-C , 19-H ) :   0.9463
B( 12-C , 13-N ) :   1.3663 B( 12-C , 20-H ) :   0.8174

-----------------------------------------------------------------------------
         ABSORPTION SPECTRUM VIA TRANSITION ELECTRIC DIPOLE MOMENTS
-----------------------------------------------------------------------------
State   Energy    Wavelength  fosc         T2        TX        TY        TZ
        (cm-1)      (nm)                 (au**2)    (au)      (au)      (au)
-----------------------------------------------------------------------------
   1   25646.5    389.9   0.826680217  10.61170   3.19987   0.19985  -0.57670
   2   30536.1    327.5   0.353414342   3.81018  -1.91726  -0.12255   0.34536
   3   31784.8    314.6   0.056427442   0.58445   0.00623   0.69763   0.31262
   4   43009.2    232.5   0.000020558   0.00016  -0.00717  -0.00971  -0.00340
   5   43167.7    231.7   0.053323420   0.40666  -0.01296  -0.57680  -0.27165
   6   45125.4    221.6   0.000005830   0.00004   0.00644   0.00053  -0.00089
   7   45980.3    217.5   0.009100097   0.06516   0.04591  -0.10434   0.22839
   8   47125.4    212.2   0.000000974   0.00001  -0.00235  -0.00112  -0.00014
   9   49033.8    203.9   0.000084349   0.00057  -0.02369  -0.00065  -0.00217
  10   49862.8    200.6   0.000046120   0.00030  -0.01711   0.00253   0.00232

FINAL SINGLE POINT ENERGY      -681.008778037666

DIPOLE MOMENT
-------------
                                X             Y             Z
Electronic contribution:     -0.09209      -7.50511      -3.11686
Nuclear contribution   :      0.11164       9.37858       3.87915
                        -----------------------------------------
Total Dipole Moment    :      0.01955       1.87347       0.76228
                        -----------------------------------------
Magnitude (a.u.)       :      2.02271
Magnitude (Debye)      :      5.14132

Rotational constants in cm-1:     0.042800     0.021552     0.015655
Rotational constants in MHz :  1283.124046   646.124770   469.312804

                             ****ORCA TERMINATED NORMALLY****
TOTAL RUN TIME: 0 days 1 hours 3 minutes 19 seconds 132 msec
