                         Program Version 5.0.2 -  RELEASE  -
|  1> ! b3lyp aug-cc-PVTZ RIJCOSX Opt
|  2> %maxcore 4000
|  3> %basis
|  4>  AuxJ "aug-cc-PVTZ/JK"
|  5>  AuxC "aug-cc-PVTZ/C"
|  6>  newGTO H "cc-PVTZ" end
|  7>  newAuxJGTO H "cc-PVTZ/JK" end
|  8>  newAuxCGTO H "cc-PVTZ/C" end
|  9> end
| 10> %cpcm
| 11>  SMD true
| 12>  SMDsolvent "dimethylsulfoxide"
| 13> end
| 14> %pal nprocs 4 end
| 15> * xyz 0 1
| 16> C          4.91900        0.91760       -0.09170
| 17> C          4.29310       -0.35910       -0.64060
| 18> C          2.77480       -0.26960       -0.77590
| 19> C          2.07810       -0.17250        0.58120
| 20> N          0.63210       -0.13660        0.42820
| 21> C         -0.04710       -1.32470        0.39580
| 22> S          0.76560       -2.76450        0.48790
| 23> C         -1.49030       -1.30430        0.27150
| 24> C         -2.23420       -2.47290        0.26980
| 25> C         -3.62250       -2.43400        0.15270
| 26> C         -4.28050       -1.23630        0.03590
| 27> C         -3.56480       -0.02210        0.03240
| 28> C         -4.20150        1.22970       -0.08680
| 29> C         -3.46810        2.38860       -0.08850
| 30> C         -2.07940        2.35000        0.02460
| 31> C         -1.41180        1.14210        0.14420
| 32> C         -2.15300       -0.06140        0.15230
| 33> C          0.03070        1.08210        0.26260
| 34> S          0.93500        2.46720        0.18770
| 35> H          6.00350        0.85470       -0.13960
| 36> H          4.63750        1.08160        0.94510
| 37> H          4.59860        1.77830       -0.67420
| 38> H          4.54860       -1.20260        0.00410
| 39> H          4.70950       -0.56110       -1.62980
| 40> H          2.40790       -1.15970       -1.29250
| 41> H          2.51280        0.60560       -1.37480
| 42> H          2.33270       -1.03960        1.19370
| 43> H          2.37890        0.73960        1.09740
| 44> H         -1.72410       -3.41940        0.36240
| 45> H         -4.17640       -3.36050        0.15470
| 46> H         -5.35630       -1.20550       -0.05570
| 47> H         -5.27740        1.25880       -0.17690
| 48> H         -3.96170        3.34430       -0.17890
| 49> H         -1.50940        3.26630        0.02140
| 50> *
| 51>
| 52>
| 53> $new_job
| 54> ! b3lyp aug-cc-PVTZ RIJCOSX SP
| 55> %maxcore 4000
| 56> %basis
| 57>  AuxJ "aug-cc-PVTZ/JK"
| 58>  AuxC "aug-cc-PVTZ/C"
| 59>  newGTO H "cc-PVTZ" end
| 60>  newAuxJGTO H "cc-PVTZ/JK" end
| 61>  newAuxCGTO H "cc-PVTZ/C" end
| 62> end
| 63> %cpcm
| 64>  SMD true
| 65>  SMDsolvent "dimethylsulfoxide"
| 66> end
| 67> %pal nprocs 4 end
| 68> %tddft
| 69>  nroots 10
| 70>  maxdim 7
| 71> end
| 72> * xyzfile 0 1
| 73>
| 74>                          ****END OF INPUT****
 Total Charge           Charge          ....    0
 Multiplicity           Mult            ....    1
 Number of Electrons    NEL             ....  150
FINAL SINGLE POINT ENERGY     -1469.651535783533
FINAL SINGLE POINT ENERGY     -1469.655267562388
FINAL SINGLE POINT ENERGY     -1469.655584533701
FINAL SINGLE POINT ENERGY     -1469.655645200357
FINAL SINGLE POINT ENERGY     -1469.655670000940
FINAL SINGLE POINT ENERGY     -1469.655677401343
FINAL SINGLE POINT ENERGY     -1469.655677879346
                    ***********************HURRAY********************
FINAL SINGLE POINT ENERGY     -1469.655677687909

CARTESIAN COORDINATES (ANGSTROEM)
---------------------------------
  C      5.060906    0.806990   -0.035821
  C      4.336050   -0.385817   -0.658914
  C      2.822128   -0.207045   -0.818700
  C      2.099093   -0.094536    0.523532
  N      0.619889   -0.080392    0.379727
  C     -0.044596   -1.304110    0.391948
  S      0.796580   -2.748429    0.532614
  C     -1.503787   -1.288081    0.273645
  C     -2.243450   -2.464954    0.280144
  C     -3.637116   -2.453462    0.174307
  C     -4.313600   -1.262554    0.058941
  C     -3.608346   -0.039735    0.044917
  C     -4.279494    1.196589   -0.071745
  C     -3.570182    2.374003   -0.083200
  C     -2.176122    2.357804    0.016430
  C     -1.469314    1.166618    0.133748
  C     -2.185302   -0.053805    0.152239
  C     -0.009151    1.153781    0.238251
  S      0.875306    2.577557    0.185865
  H      6.138952    0.634077   -0.010305
  H      4.737912    0.994036    0.990125
  H      4.886714    1.720110   -0.610629
  H      4.530525   -1.282671   -0.062315
  H      4.758737   -0.580757   -1.648009
  H      2.419765   -1.063016   -1.363077
  H      2.615885    0.682664   -1.417726
  H      2.343931   -0.942386    1.153595
  H      2.368813    0.819010    1.038693
  H     -1.725434   -3.407254    0.370023
  H     -4.177352   -3.390255    0.183350
  H     -5.392799   -1.244450   -0.023098
  H     -5.359034    1.199958   -0.150945
  H     -4.084543    3.321265   -0.170915
  H     -1.631665    3.289344    0.003004

 Multiplicity           Mult            ....    1
 Number of Electrons    NEL             ....  150
 Basis Dimension        Dim             .... 1092

ORBITAL ENERGIES
----------------

  NO   OCC          E(Eh)            E(eV)
   0   2.0000     -88.852190     -2417.7910
   1   2.0000     -88.852110     -2417.7888
   2   2.0000     -14.400957      -391.8700
   3   2.0000     -10.281361      -279.7701
   4   2.0000     -10.281312      -279.7687
   5   2.0000     -10.206185      -277.7244
   6   2.0000     -10.205132      -277.6957
   7   2.0000     -10.205010      -277.6924
   8   2.0000     -10.199710      -277.5482
   9   2.0000     -10.197054      -277.4760
  10   2.0000     -10.193510      -277.3795
  11   2.0000     -10.193487      -277.3789
  12   2.0000     -10.192739      -277.3585
  13   2.0000     -10.192699      -277.3574
  14   2.0000     -10.184772      -277.1417
  15   2.0000     -10.184736      -277.1408
  16   2.0000     -10.160480      -276.4807
  17   2.0000     -10.159228      -276.4466
  18   2.0000     -10.148581      -276.1569
  19   2.0000      -7.905325      -215.1148
  20   2.0000      -7.905234      -215.1124
  21   2.0000      -5.869251      -159.7104
  22   2.0000      -5.869159      -159.7079
  23   2.0000      -5.866362      -159.6318
  24   2.0000      -5.866277      -159.6295
  25   2.0000      -5.860915      -159.4836
  26   2.0000      -5.860825      -159.4812
  27   2.0000      -1.001523       -27.2528
  28   2.0000      -0.897440       -24.4206
  29   2.0000      -0.853526       -23.2256
  30   2.0000      -0.816697       -22.2234
  31   2.0000      -0.808754       -22.0073
  32   2.0000      -0.786648       -21.4058
  33   2.0000      -0.761337       -20.7170
  34   2.0000      -0.732291       -19.9266
  35   2.0000      -0.726019       -19.7560
  36   2.0000      -0.719914       -19.5899
  37   2.0000      -0.661874       -18.0105
  38   2.0000      -0.652087       -17.7442
  39   2.0000      -0.624341       -16.9892
  40   2.0000      -0.617702       -16.8085
  41   2.0000      -0.614221       -16.7138
  42   2.0000      -0.570331       -15.5195
  43   2.0000      -0.555692       -15.1212
  44   2.0000      -0.524644       -14.2763
  45   2.0000      -0.520202       -14.1554
  46   2.0000      -0.506019       -13.7695
  47   2.0000      -0.473814       -12.8931
  48   2.0000      -0.471499       -12.8301
  49   2.0000      -0.461597       -12.5607
  50   2.0000      -0.453511       -12.3407
  51   2.0000      -0.445180       -12.1140
  52   2.0000      -0.434387       -11.8203
  53   2.0000      -0.423605       -11.5269
  54   2.0000      -0.413447       -11.2505
  55   2.0000      -0.403818       -10.9885
  56   2.0000      -0.402079       -10.9411
  57   2.0000      -0.398215       -10.8360
  58   2.0000      -0.390364       -10.6223
  59   2.0000      -0.378366       -10.2959
  60   2.0000      -0.376288       -10.2393
  61   2.0000      -0.365951        -9.9580
  62   2.0000      -0.358646        -9.7593
  63   2.0000      -0.346920        -9.4402
  64   2.0000      -0.342084        -9.3086
  65   2.0000      -0.329940        -8.9781
  66   2.0000      -0.326421        -8.8824
  67   2.0000      -0.323316        -8.7979
  68   2.0000      -0.307248        -8.3606
  69   2.0000      -0.295140        -8.0312
  70   2.0000      -0.265608        -7.2276
  71   2.0000      -0.241206        -6.5635
  72   2.0000      -0.231785        -6.3072
  73   2.0000      -0.226113        -6.1528
  74   2.0000      -0.217196        -5.9102
  75   0.0000      -0.115937        -3.1548
  76   0.0000      -0.055228        -1.5028
  77   0.0000      -0.029399        -0.8000
  78   0.0000      -0.026414        -0.7187
  79   0.0000      -0.001780        -0.0484

MULLIKEN ATOMIC CHARGES
-----------------------
   0 C :   -0.589519
   1 C :   -0.142263
   2 C :   -0.057977
   3 C :   -0.571352
   4 N :    0.215043
   5 C :   -0.176839
   6 S :   -0.595303
   7 C :    1.680296
   8 C :   -0.919663
   9 C :   -0.643202
  10 C :   -0.602373
  11 C :    0.825671
  12 C :   -0.593334
  13 C :   -0.652024
  14 C :   -0.889828
  15 C :    1.651187
  16 C :    0.674362
  17 C :   -0.281008
  18 S :   -0.615277
  19 H :    0.159230
  20 H :    0.157181
  21 H :    0.151224
  22 H :    0.120609
  23 H :    0.144770
  24 H :    0.147162
  25 H :    0.127519
  26 H :    0.177666
  27 H :    0.173967
  28 H :    0.078932
  29 H :    0.239735
  30 H :    0.143731
  31 H :    0.141792
  32 H :    0.240341
  33 H :    0.079546
Sum of atomic charges:   -0.0000000

LOEWDIN ATOMIC CHARGES
----------------------
   0 C :   -0.139488
   1 C :   -0.428866
   2 C :   -0.337389
   3 C :   -0.386527
   4 N :    0.005660
   5 C :   -0.882736
   6 S :    0.869550
   7 C :   -0.281595
   8 C :   -0.049077
   9 C :   -0.057400
  10 C :   -0.002084
  11 C :   -0.279233
  12 C :   -0.002049
  13 C :   -0.057334
  14 C :   -0.049057
  15 C :   -0.281866
  16 C :   -0.161831
  17 C :   -0.881948
  18 S :    0.869904
  19 H :    0.096906
  20 H :    0.114408
  21 H :    0.111845
  22 H :    0.166845
  23 H :    0.156422
  24 H :    0.179406
  25 H :    0.183940
  26 H :    0.196136
  27 H :    0.194615
  28 H :    0.194553
  29 H :    0.176158
  30 H :    0.195701
  31 H :    0.195697
  32 H :    0.176140
  33 H :    0.194592

  Mayer bond orders larger than 0.100000
B(  0-C ,  1-C ) :   0.8235 B(  0-C , 19-H ) :   0.9870 B(  0-C , 20-H ) :   0.9685
B(  0-C , 21-H ) :   0.9722 B(  1-C ,  2-C ) :   0.8949 B(  1-C , 22-H ) :   0.9934
B(  1-C , 23-H ) :   1.0013 B(  2-C ,  3-C ) :   0.8214 B(  2-C , 24-H ) :   0.9779
B(  2-C , 25-H ) :   0.9787 B(  3-C ,  4-N ) :   0.6592 B(  3-C ,  5-C ) :   0.1030
B(  3-C , 17-C ) :   0.1064 B(  3-C , 26-H ) :   1.0211 B(  3-C , 27-H ) :   1.0096
B(  4-N ,  5-C ) :   1.0765 B(  4-N ,  7-C ) :  -0.1095 B(  4-N , 15-C ) :  -0.1129
B(  4-N , 17-C ) :   1.0702 B(  5-C ,  6-S ) :   0.9661 B(  5-C , 10-C ) :   0.1057
B(  5-C , 11-C ) :  -0.1375 B(  5-C , 15-C ) :  -0.2245 B(  5-C , 16-C ) :   0.7131
B(  5-C , 17-C ) :   0.2186 B(  6-S ,  7-C ) :  -0.2282 B(  6-S ,  8-C ) :   0.2063
B(  6-S ,  9-C ) :   0.1772 B(  6-S , 16-C ) :  -0.1086 B(  7-C ,  8-C ) :   0.5152
B(  7-C , 10-C ) :  -0.1677 B(  7-C , 11-C ) :   0.2285 B(  7-C , 12-C ) :   0.1046
B(  7-C , 13-C ) :   0.1372 B(  7-C , 14-C ) :  -0.1102 B(  7-C , 15-C ) :   0.1571
B(  7-C , 16-C ) :   0.1406 B(  7-C , 17-C ) :  -0.2225 B(  7-C , 28-H ) :  -0.1988
B(  8-C ,  9-C ) :   1.1812 B(  8-C , 10-C ) :   0.2085 B(  8-C , 16-C ) :  -0.3239
B(  8-C , 28-H ) :   1.1875 B(  9-C , 10-C ) :   1.1925 B(  9-C , 12-C ) :  -0.1812
B(  9-C , 15-C ) :   0.1417 B(  9-C , 16-C ) :  -0.1813 B(  9-C , 29-H ) :   0.9137
B( 10-C , 11-C ) :   0.5285 B( 10-C , 12-C ) :  -0.2750 B( 10-C , 13-C ) :  -0.1798
B( 10-C , 15-C ) :   0.1179 B( 10-C , 16-C ) :   0.1516 B( 10-C , 30-H ) :   1.0583
B( 11-C , 12-C ) :   0.5329 B( 11-C , 15-C ) :   0.1806 B( 11-C , 16-C ) :  -0.3042
B( 11-C , 17-C ) :  -0.1528 B( 12-C , 13-C ) :   1.1948 B( 12-C , 14-C ) :   0.1921
B( 12-C , 15-C ) :  -0.1649 B( 12-C , 16-C ) :   0.1583 B( 12-C , 17-C ) :   0.1031
B( 12-C , 31-H ) :   1.0614 B( 13-C , 14-C ) :   1.1507 B( 13-C , 16-C ) :  -0.1551
B( 13-C , 18-S ) :   0.1518 B( 13-C , 32-H ) :   0.9121 B( 14-C , 15-C ) :   0.4963
B( 14-C , 16-C ) :  -0.2640 B( 14-C , 18-S ) :   0.1872 B( 14-C , 33-H ) :   1.1841
B( 15-C , 16-C ) :   0.1270 B( 15-C , 17-C ) :  -0.1187 B( 15-C , 18-S ) :  -0.1363
B( 15-C , 33-H ) :  -0.2093 B( 16-C , 17-C ) :   0.7579 B( 16-C , 18-S ) :  -0.1314
B( 17-C , 18-S ) :   1.0444

-----------------------------------------------------------------------------
         ABSORPTION SPECTRUM VIA TRANSITION ELECTRIC DIPOLE MOMENTS
-----------------------------------------------------------------------------
State   Energy    Wavelength  fosc         T2        TX        TY        TZ
        (cm-1)      (nm)                 (au**2)    (au)      (au)      (au)
-----------------------------------------------------------------------------
   1   15141.3    660.4   0.000355468   0.00773   0.07549  -0.00703  -0.04451
   2   18274.2    547.2   0.001783642   0.03213  -0.01627   0.17807  -0.01264
   3   22902.1    436.6   0.493719344   7.09708  -2.65774   0.02047  -0.18182
   4   25311.5    395.1   0.110902803   1.44245  -0.01382  -1.19797   0.08436
   5   28386.2    352.3   0.124314739   1.44176  -0.00938  -1.19854   0.07191
   6   28698.9    348.4   0.054383015   0.62384  -0.02765  -0.78795   0.04697
   7   31679.5    315.7   0.000297345   0.00309  -0.00835  -0.05421  -0.00901
   8   32512.5    307.6   0.170745995   1.72892   0.02452   1.31184  -0.08603
   9   34004.3    294.1   0.000820039   0.00794  -0.00010   0.08851  -0.01030
  10   35738.8    279.8   0.000634588   0.00585   0.07514  -0.01132  -0.00843

FINAL SINGLE POINT ENERGY     -1469.586688771606

DIPOLE MOMENT
-------------
                                X             Y             Z
Electronic contribution:    -19.29189      -1.28715       3.04943
Nuclear contribution   :     16.62806       1.28912      -3.30400
                        -----------------------------------------
Total Dipole Moment    :     -2.66383       0.00197      -0.25458
                        -----------------------------------------
Magnitude (a.u.)       :      2.67597
Magnitude (Debye)      :      6.80178

Rotational constants in cm-1:     0.017755     0.007929     0.005616
Rotational constants in MHz :   532.288960   237.713112   168.360215

                             ****ORCA TERMINATED NORMALLY****
TOTAL RUN TIME: 0 days 3 hours 33 minutes 44 seconds 65 msec
