                         Program Version 5.0.2 -  RELEASE  -
|  1> ! m062x defgrid3 aug-cc-PVTZ RIJCOSX Opt
|  2> %maxcore 4000
|  3> %basis
|  4>  AuxJ "aug-cc-PVTZ/JK"
|  5>  AuxC "aug-cc-PVTZ/C"
|  6>  newGTO H "cc-PVTZ" end
|  7>  newAuxJGTO H "cc-PVTZ/JK" end
|  8>  newAuxCGTO H "cc-PVTZ/C" end
|  9> end
| 10> %cpcm
| 11>  SMD true
| 12>  SMDsolvent "dimethylsulfoxide"
| 13> end
| 14> %pal nprocs 4 end
| 15> * xyz 0 1
| 16> C          4.91900        0.91760       -0.09170
| 17> C          4.29310       -0.35910       -0.64060
| 18> C          2.77480       -0.26960       -0.77590
| 19> C          2.07810       -0.17250        0.58120
| 20> N          0.63210       -0.13660        0.42820
| 21> C         -0.04710       -1.32470        0.39580
| 22> S          0.76560       -2.76450        0.48790
| 23> C         -1.49030       -1.30430        0.27150
| 24> C         -2.23420       -2.47290        0.26980
| 25> C         -3.62250       -2.43400        0.15270
| 26> C         -4.28050       -1.23630        0.03590
| 27> C         -3.56480       -0.02210        0.03240
| 28> C         -4.20150        1.22970       -0.08680
| 29> C         -3.46810        2.38860       -0.08850
| 30> C         -2.07940        2.35000        0.02460
| 31> C         -1.41180        1.14210        0.14420
| 32> C         -2.15300       -0.06140        0.15230
| 33> C          0.03070        1.08210        0.26260
| 34> S          0.93500        2.46720        0.18770
| 35> H          6.00350        0.85470       -0.13960
| 36> H          4.63750        1.08160        0.94510
| 37> H          4.59860        1.77830       -0.67420
| 38> H          4.54860       -1.20260        0.00410
| 39> H          4.70950       -0.56110       -1.62980
| 40> H          2.40790       -1.15970       -1.29250
| 41> H          2.51280        0.60560       -1.37480
| 42> H          2.33270       -1.03960        1.19370
| 43> H          2.37890        0.73960        1.09740
| 44> H         -1.72410       -3.41940        0.36240
| 45> H         -4.17640       -3.36050        0.15470
| 46> H         -5.35630       -1.20550       -0.05570
| 47> H         -5.27740        1.25880       -0.17690
| 48> H         -3.96170        3.34430       -0.17890
| 49> H         -1.50940        3.26630        0.02140
| 50> *
| 51>
| 52>
| 53> $new_job
| 54> ! m062x defgrid3 aug-cc-PVTZ RIJCOSX SP
| 55> %maxcore 4000
| 56> %basis
| 57>  AuxJ "aug-cc-PVTZ/JK"
| 58>  AuxC "aug-cc-PVTZ/C"
| 59>  newGTO H "cc-PVTZ" end
| 60>  newAuxJGTO H "cc-PVTZ/JK" end
| 61>  newAuxCGTO H "cc-PVTZ/C" end
| 62> end
| 63> %cpcm
| 64>  SMD true
| 65>  SMDsolvent "dimethylsulfoxide"
| 66> end
| 67> %pal nprocs 4 end
| 68> %tddft
| 69>  nroots 10
| 70>  maxdim 7
| 71> end
| 72> * xyzfile 0 1
| 73>
| 74>                          ****END OF INPUT****
 Total Charge           Charge          ....    0
 Multiplicity           Mult            ....    1
 Number of Electrons    NEL             ....  150
FINAL SINGLE POINT ENERGY     -1469.868345845350
FINAL SINGLE POINT ENERGY     -1469.870456255944
FINAL SINGLE POINT ENERGY     -1469.870703059465
FINAL SINGLE POINT ENERGY     -1469.870761310902
FINAL SINGLE POINT ENERGY     -1469.870777775792
FINAL SINGLE POINT ENERGY     -1469.870785457416
FINAL SINGLE POINT ENERGY     -1469.870789280537
                    ***********************HURRAY********************
FINAL SINGLE POINT ENERGY     -1469.870789856768

CARTESIAN COORDINATES (ANGSTROEM)
---------------------------------
  C      4.972628    0.840545    0.003173
  C      4.321004   -0.370279   -0.654275
  C      2.811046   -0.229774   -0.821204
  C      2.103187   -0.130593    0.522808
  N      0.633288   -0.105565    0.370923
  C     -0.030840   -1.322922    0.342156
  S      0.798478   -2.760995    0.392848
  C     -1.496394   -1.295628    0.256599
  C     -2.239050   -2.460856    0.291081
  C     -3.637134   -2.437402    0.212446
  C     -4.300262   -1.245145    0.093946
  C     -3.582060   -0.030730    0.055366
  C     -4.244900    1.209295   -0.067233
  C     -3.528891    2.375860   -0.101984
  C     -2.131430    2.347588   -0.014923
  C     -1.441720    1.155718    0.107103
  C     -2.166736   -0.056827    0.142552
  C      0.022500    1.130256    0.214321
  S      0.911838    2.531179    0.144448
  H      6.058388    0.740987    0.018015
  H      4.642302    0.969094    1.034775
  H      4.728072    1.755075   -0.541757
  H      4.535242   -1.268798   -0.068629
  H      4.764000   -0.527931   -1.639160
  H      2.419306   -1.092380   -1.361870
  H      2.584879    0.660371   -1.412340
  H      2.348565   -0.984127    1.145255
  H      2.380775    0.774573    1.048251
  H     -1.729907   -3.408316    0.382592
  H     -4.184977   -3.368798    0.245425
  H     -5.380653   -1.212772    0.029006
  H     -5.325687    1.216960   -0.132744
  H     -4.034374    3.326872   -0.195809
  H     -1.580580    3.275566   -0.041464

 Multiplicity           Mult            ....    1
 Number of Electrons    NEL             ....  150
 Basis Dimension        Dim             .... 1092

ORBITAL ENERGIES
----------------

  NO   OCC          E(Eh)            E(eV)
   0   2.0000     -89.899466     -2446.2888
   1   2.0000     -89.899425     -2446.2877
   2   2.0000     -14.834014      -403.6540
   3   2.0000     -10.655258      -289.9443
   4   2.0000     -10.655104      -289.9401
   5   2.0000     -10.574487      -287.7464
   6   2.0000     -10.572999      -287.7059
   7   2.0000     -10.572819      -287.7010
   8   2.0000     -10.566642      -287.5329
   9   2.0000     -10.565602      -287.5046
  10   2.0000     -10.562177      -287.4114
  11   2.0000     -10.562120      -287.4099
  12   2.0000     -10.561442      -287.3915
  13   2.0000     -10.561390      -287.3900
  14   2.0000     -10.552169      -287.1391
  15   2.0000     -10.552158      -287.1388
  16   2.0000     -10.526212      -286.4328
  17   2.0000     -10.524533      -286.3871
  18   2.0000     -10.514185      -286.1055
  19   2.0000      -8.237023      -224.1408
  20   2.0000      -8.236958      -224.1390
  21   2.0000      -6.156486      -167.5265
  22   2.0000      -6.156425      -167.5248
  23   2.0000      -6.154786      -167.4802
  24   2.0000      -6.154718      -167.4784
  25   2.0000      -6.151288      -167.3851
  26   2.0000      -6.151228      -167.3834
  27   2.0000      -1.119885       -30.4736
  28   2.0000      -1.008127       -27.4325
  29   2.0000      -0.960542       -26.1377
  30   2.0000      -0.921298       -25.0698
  31   2.0000      -0.911579       -24.8053
  32   2.0000      -0.891040       -24.2464
  33   2.0000      -0.860309       -23.4102
  34   2.0000      -0.829249       -22.5650
  35   2.0000      -0.822079       -22.3699
  36   2.0000      -0.814434       -22.1619
  37   2.0000      -0.752884       -20.4870
  38   2.0000      -0.738890       -20.1062
  39   2.0000      -0.710235       -19.3265
  40   2.0000      -0.703946       -19.1553
  41   2.0000      -0.696343       -18.9484
  42   2.0000      -0.655714       -17.8429
  43   2.0000      -0.634453       -17.2643
  44   2.0000      -0.602380       -16.3916
  45   2.0000      -0.597483       -16.2583
  46   2.0000      -0.580428       -15.7943
  47   2.0000      -0.548271       -14.9192
  48   2.0000      -0.544195       -14.8083
  49   2.0000      -0.538550       -14.6547
  50   2.0000      -0.523015       -14.2320
  51   2.0000      -0.517936       -14.0937
  52   2.0000      -0.500701       -13.6248
  53   2.0000      -0.495105       -13.4725
  54   2.0000      -0.482998       -13.1431
  55   2.0000      -0.473989       -12.8979
  56   2.0000      -0.468423       -12.7464
  57   2.0000      -0.463364       -12.6088
  58   2.0000      -0.453326       -12.3356
  59   2.0000      -0.443956       -12.0807
  60   2.0000      -0.439285       -11.9535
  61   2.0000      -0.434459       -11.8222
  62   2.0000      -0.422983       -11.5100
  63   2.0000      -0.404235       -10.9998
  64   2.0000      -0.399355       -10.8670
  65   2.0000      -0.390552       -10.6275
  66   2.0000      -0.388744       -10.5783
  67   2.0000      -0.384976       -10.4757
  68   2.0000      -0.367260        -9.9936
  69   2.0000      -0.353171        -9.6103
  70   2.0000      -0.317128        -8.6295
  71   2.0000      -0.294837        -8.0229
  72   2.0000      -0.288566        -7.8523
  73   2.0000      -0.277714        -7.5570
  74   2.0000      -0.272493        -7.4149
  75   0.0000      -0.092973        -2.5299
  76   0.0000      -0.022744        -0.6189
  77   0.0000      -0.000935        -0.0254
  78   0.0000       0.001975         0.0537
  79   0.0000       0.004746         0.1291

MULLIKEN ATOMIC CHARGES
-----------------------
   0 C :   -0.722692
   1 C :   -0.250473
   2 C :   -0.235393
   3 C :   -1.051864
   4 N :   -0.052845
   5 C :    0.225408
   6 S :   -0.642245
   7 C :    1.820595
   8 C :   -1.112567
   9 C :   -0.742646
  10 C :   -0.731313
  11 C :    0.921543
  12 C :   -0.713897
  13 C :   -0.789696
  14 C :   -1.071217
  15 C :    1.685149
  16 C :    1.432407
  17 C :    0.291511
  18 S :   -0.649084
  19 H :    0.188580
  20 H :    0.200798
  21 H :    0.193324
  22 H :    0.168943
  23 H :    0.176541
  24 H :    0.246048
  25 H :    0.251201
  26 H :    0.278723
  27 H :    0.319567
  28 H :   -0.033694
  29 H :    0.157687
  30 H :    0.063198
  31 H :    0.063418
  32 H :    0.160086
  33 H :   -0.045102
Sum of atomic charges:   -0.0000000

LOEWDIN ATOMIC CHARGES
----------------------
   0 C :   -0.140266
   1 C :   -0.432836
   2 C :   -0.353915
   3 C :   -0.406582
   4 N :   -0.006010
   5 C :   -0.903323
   6 S :    0.912634
   7 C :   -0.286980
   8 C :   -0.050885
   9 C :   -0.057569
  10 C :   -0.005036
  11 C :   -0.289222
  12 C :   -0.005078
  13 C :   -0.057682
  14 C :   -0.050947
  15 C :   -0.286681
  16 C :   -0.171727
  17 C :   -0.901470
  18 S :    0.911961
  19 H :    0.097180
  20 H :    0.117935
  21 H :    0.116815
  22 H :    0.169468
  23 H :    0.156942
  24 H :    0.183248
  25 H :    0.190717
  26 H :    0.202186
  27 H :    0.200861
  28 H :    0.198109
  29 H :    0.177009
  30 H :    0.198034
  31 H :    0.198077
  32 H :    0.177018
  33 H :    0.198014

  Mayer bond orders larger than 0.100000
B(  0-C ,  1-C ) :   0.6930 B(  0-C ,  2-C ) :   0.1431 B(  0-C , 19-H ) :   0.9698
B(  0-C , 20-H ) :   0.9523 B(  0-C , 21-H ) :   0.9729 B(  1-C ,  2-C ) :   0.8170
B(  1-C , 22-H ) :   0.9961 B(  1-C , 23-H ) :   0.9998 B(  2-C ,  3-C ) :   0.6028
B(  2-C , 24-H ) :   0.9539 B(  2-C , 25-H ) :   0.9392 B(  3-C ,  4-N ) :   1.0181
B(  3-C ,  6-S ) :   0.1411 B(  3-C , 16-C ) :  -0.1810 B(  3-C , 17-C ) :  -0.1261
B(  3-C , 26-H ) :   1.0288 B(  3-C , 27-H ) :   0.9564 B(  4-N ,  5-C ) :   0.9720
B(  4-N ,  6-S ) :   0.3602 B(  4-N ,  7-C ) :  -0.1039 B(  4-N , 11-C ) :  -0.1854
B(  4-N , 15-C ) :  -0.1442 B(  4-N , 16-C ) :   0.1644 B(  4-N , 17-C ) :   1.0764
B(  4-N , 18-S ) :   0.3211 B(  5-C ,  7-C ) :  -0.3026 B(  5-C ,  9-C ) :   0.1203
B(  5-C , 14-C ) :  -0.1144 B(  5-C , 15-C ) :  -0.3773 B(  5-C , 16-C ) :   0.6284
B(  5-C , 17-C ) :   0.3458 B(  6-S ,  7-C ) :   0.3717 B(  6-S ,  8-C ) :   0.2272
B(  6-S ,  9-C ) :   0.1441 B(  6-S , 16-C ) :  -0.1855 B(  7-C ,  8-C ) :  -0.2298
B(  7-C ,  9-C ) :  -0.2208 B(  7-C , 10-C ) :  -0.1184 B(  7-C , 11-C ) :  -0.1864
B(  7-C , 13-C ) :   0.1087 B(  7-C , 14-C ) :  -0.1943 B(  7-C , 15-C ) :   0.1045
B(  7-C , 16-C ) :   0.5691 B(  7-C , 17-C ) :  -0.3262 B(  7-C , 28-H ) :  -0.4785
B(  8-C ,  9-C ) :   1.0186 B(  8-C , 10-C ) :   0.2125 B(  8-C , 12-C ) :   0.1055
B(  8-C , 15-C ) :  -0.1462 B(  8-C , 16-C ) :  -0.4454 B(  8-C , 17-C ) :  -0.1544
B(  8-C , 28-H ) :   1.5210 B(  8-C , 29-H ) :  -0.1366 B(  9-C , 10-C ) :   1.1095
B(  9-C , 12-C ) :  -0.1421 B(  9-C , 15-C ) :   0.1018 B(  9-C , 16-C ) :  -0.3103
B(  9-C , 29-H ) :   1.1009 B( 10-C , 11-C ) :   0.5135 B( 10-C , 12-C ) :  -0.3962
B( 10-C , 13-C ) :  -0.1456 B( 10-C , 14-C ) :   0.1196 B( 10-C , 29-H ) :  -0.1098
B( 10-C , 30-H ) :   1.2369 B( 11-C , 12-C ) :   0.5162 B( 11-C , 15-C ) :  -0.2031
B( 11-C , 16-C ) :  -0.4904 B( 11-C , 18-S ) :   0.1009 B( 11-C , 30-H ) :  -0.1560
B( 11-C , 31-H ) :  -0.1574 B( 12-C , 13-C ) :   1.1219 B( 12-C , 14-C ) :   0.1858
B( 12-C , 15-C ) :  -0.1100 B( 12-C , 31-H ) :   1.2346 B( 12-C , 32-H ) :  -0.1099
B( 13-C , 14-C ) :   0.9795 B( 13-C , 15-C ) :  -0.1967 B( 13-C , 16-C ) :  -0.2731
B( 13-C , 18-S ) :   0.1485 B( 13-C , 32-H ) :   1.0963 B( 14-C , 15-C ) :  -0.1438
B( 14-C , 16-C ) :  -0.4387 B( 14-C , 17-C ) :  -0.1505 B( 14-C , 18-S ) :   0.2273
B( 14-C , 32-H ) :  -0.1356 B( 14-C , 33-H ) :   1.5337 B( 15-C , 16-C ) :   0.5430
B( 15-C , 17-C ) :  -0.3383 B( 15-C , 18-S ) :   0.5181 B( 15-C , 33-H ) :  -0.4800
B( 16-C , 17-C ) :   0.6247 B( 16-C , 18-S ) :  -0.2217 B( 18-S , 33-H ) :   0.1081

-----------------------------------------------------------------------------
         ABSORPTION SPECTRUM VIA TRANSITION ELECTRIC DIPOLE MOMENTS
-----------------------------------------------------------------------------
State   Energy    Wavelength  fosc         T2        TX        TY        TZ
        (cm-1)      (nm)                 (au**2)    (au)      (au)      (au)
-----------------------------------------------------------------------------
   1   18166.3    550.5   0.000866896   0.01571  -0.11681   0.00211   0.04539
   2   20758.0    481.7   0.002169458   0.03441   0.04470   0.17989  -0.00684
   3   25540.8    391.5   0.574299032   7.40253   2.71731  -0.04778   0.12840
   4   28823.6    346.9   0.225282697   2.57309  -0.03090  -1.60248   0.06469
   5   32176.8    310.8   0.253408605   2.59271   0.03870   1.60736  -0.08715
   6   36314.5    275.4   0.058371748   0.52917   0.01653   0.72675  -0.02705
   7   37548.5    266.3   0.004142103   0.03632  -0.01173   0.18992  -0.01046
   8   39694.6    251.9   0.001428610   0.01185   0.04640   0.07996  -0.05746
   9   39904.5    250.6   0.047278631   0.39005  -0.00401  -0.62377   0.03078
  10   42111.7    237.5   0.053321668   0.41685  -0.64292   0.01254  -0.05778

FINAL SINGLE POINT ENERGY     -1469.788017970071

DIPOLE MOMENT
-------------
                                X             Y             Z
Electronic contribution:    -18.70818      -1.48116       2.67119
Nuclear contribution   :     16.28465       1.50898      -2.78271
                        -----------------------------------------
Total Dipole Moment    :     -2.42354       0.02781      -0.11152
                        -----------------------------------------
Magnitude (a.u.)       :      2.42626
Magnitude (Debye)      :      6.16707

Rotational constants in cm-1:     0.017965     0.008047     0.005682
Rotational constants in MHz :   538.579095   241.244983   170.351444

                             ****ORCA TERMINATED NORMALLY****
TOTAL RUN TIME: 0 days 6 hours 9 minutes 22 seconds 891 msec
