                         Program Version 5.0.2 -  RELEASE  -
|  1> ! pbe0 d3bj aug-cc-PVTZ RIJCOSX Opt
|  2> %maxcore 4000
|  3> %basis
|  4>  AuxJ "aug-cc-PVTZ/JK"
|  5>  AuxC "aug-cc-PVTZ/C"
|  6>  newGTO H "cc-PVTZ" end
|  7>  newAuxJGTO H "cc-PVTZ/JK" end
|  8>  newAuxCGTO H "cc-PVTZ/C" end
|  9> end
| 10> %cpcm
| 11>  SMD true
| 12>  SMDsolvent "dimethylsulfoxide"
| 13> end
| 14> %pal nprocs 4 end
| 15> * xyz 0 1
| 16> C          4.91900        0.91760       -0.09170
| 17> C          4.29310       -0.35910       -0.64060
| 18> C          2.77480       -0.26960       -0.77590
| 19> C          2.07810       -0.17250        0.58120
| 20> N          0.63210       -0.13660        0.42820
| 21> C         -0.04710       -1.32470        0.39580
| 22> S          0.76560       -2.76450        0.48790
| 23> C         -1.49030       -1.30430        0.27150
| 24> C         -2.23420       -2.47290        0.26980
| 25> C         -3.62250       -2.43400        0.15270
| 26> C         -4.28050       -1.23630        0.03590
| 27> C         -3.56480       -0.02210        0.03240
| 28> C         -4.20150        1.22970       -0.08680
| 29> C         -3.46810        2.38860       -0.08850
| 30> C         -2.07940        2.35000        0.02460
| 31> C         -1.41180        1.14210        0.14420
| 32> C         -2.15300       -0.06140        0.15230
| 33> C          0.03070        1.08210        0.26260
| 34> S          0.93500        2.46720        0.18770
| 35> H          6.00350        0.85470       -0.13960
| 36> H          4.63750        1.08160        0.94510
| 37> H          4.59860        1.77830       -0.67420
| 38> H          4.54860       -1.20260        0.00410
| 39> H          4.70950       -0.56110       -1.62980
| 40> H          2.40790       -1.15970       -1.29250
| 41> H          2.51280        0.60560       -1.37480
| 42> H          2.33270       -1.03960        1.19370
| 43> H          2.37890        0.73960        1.09740
| 44> H         -1.72410       -3.41940        0.36240
| 45> H         -4.17640       -3.36050        0.15470
| 46> H         -5.35630       -1.20550       -0.05570
| 47> H         -5.27740        1.25880       -0.17690
| 48> H         -3.96170        3.34430       -0.17890
| 49> H         -1.50940        3.26630        0.02140
| 50> *
| 51>
| 52>
| 53> $new_job
| 54> ! b2plyp aug-cc-PVTZ RIJCOSX SP
| 55> %maxcore 4000
| 56> %basis
| 57>  AuxJ "aug-cc-PVTZ/JK"
| 58>  AuxC "aug-cc-PVTZ/C"
| 59>  newGTO H "cc-PVTZ" end
| 60>  newAuxJGTO H "cc-PVTZ/JK" end
| 61>  newAuxCGTO H "cc-PVTZ/C" end
| 62> end
| 63> %cpcm
| 64>  SMD true
| 65>  SMDsolvent "dimethylsulfoxide"
| 66> end
| 67> %pal nprocs 4 end
| 68> %tddft
| 69>  nroots 10
| 70>  maxdim 7
| 71> end
| 72> * xyzfile 0 1
| 73>
| 74>                          ****END OF INPUT****
 Total Charge           Charge          ....    0
 Multiplicity           Mult            ....    1
 Number of Electrons    NEL             ....  150
Dispersion correction           -0.046327233
FINAL SINGLE POINT ENERGY     -1469.145068575497
Dispersion correction            ... done
Dispersion correction           -0.046154154
FINAL SINGLE POINT ENERGY     -1469.146437465969
Dispersion correction            ... done
Dispersion correction           -0.046120662
FINAL SINGLE POINT ENERGY     -1469.146640660956
Dispersion correction            ... done
FINAL SINGLE POINT ENERGY     -1469.146669110347
FINAL SINGLE POINT ENERGY     -1469.146676555997
Dispersion correction            ... done
Dispersion correction           -0.046116720
FINAL SINGLE POINT ENERGY     -1469.146676132365
Dispersion correction            ... done
                    ***********************HURRAY********************
Dispersion correction           -0.046114331
FINAL SINGLE POINT ENERGY     -1469.146673347664

CARTESIAN COORDINATES (ANGSTROEM)
---------------------------------
  C      4.976324    0.829373   -0.026614
  C      4.300779   -0.377149   -0.656505
  C      2.793776   -0.234754   -0.812864
  C      2.089217   -0.113375    0.526212
  N      0.628446   -0.093199    0.382707
  C     -0.033845   -1.306948    0.387837
  S      0.801239   -2.740795    0.516959
  C     -1.486992   -1.286533    0.269161
  C     -2.224588   -2.458422    0.275278
  C     -3.615761   -2.441547    0.171148
  C     -4.285809   -1.249756    0.059684
  C     -3.577087   -0.033030    0.046521
  C     -4.240128    1.203964   -0.066400
  C     -3.526041    2.375327   -0.079109
  C     -2.134210    2.350839    0.013787
  C     -1.440754    1.157700    0.127235
  C     -2.160738   -0.053984    0.150173
  C      0.013768    1.135154    0.223654
  S      0.906292    2.536971    0.138270
  H      6.061348    0.703687   -0.005179
  H      4.648264    0.991669    1.002731
  H      4.759582    1.741328   -0.590195
  H      4.517082   -1.271579   -0.061805
  H      4.732966   -0.557057   -1.645061
  H      2.397869   -1.107528   -1.337768
  H      2.562341    0.644585   -1.420710
  H      2.333540   -0.962225    1.159938
  H      2.365506    0.805373    1.034251
  H     -1.701803   -3.400923    0.364314
  H     -4.160682   -3.376930    0.179121
  H     -5.366374   -1.225303   -0.020591
  H     -5.321253    1.211873   -0.141991
  H     -4.036405    3.326331   -0.163453
  H     -1.575968    3.276965   -0.001039

 Multiplicity           Mult            ....    1
 Number of Electrons    NEL             ....  150
 Basis Dimension        Dim             .... 1092

ORBITAL ENERGIES
----------------

  NO   OCC          E(Eh)            E(eV)
   0   2.0000     -90.133660     -2452.6616
   1   2.0000     -90.133626     -2452.6607
   2   2.0000     -14.923202      -406.0810
   3   2.0000     -10.735260      -292.1213
   4   2.0000     -10.735237      -292.1207
   5   2.0000     -10.650758      -289.8218
   6   2.0000     -10.646587      -289.7084
   7   2.0000     -10.646502      -289.7061
   8   2.0000     -10.642410      -289.5947
   9   2.0000     -10.640358      -289.5389
  10   2.0000     -10.640215      -289.5350
  11   2.0000     -10.640163      -289.5335
  12   2.0000     -10.640148      -289.5332
  13   2.0000     -10.637594      -289.4636
  14   2.0000     -10.627869      -289.1990
  15   2.0000     -10.627852      -289.1985
  16   2.0000     -10.599620      -288.4303
  17   2.0000     -10.599206      -288.4191
  18   2.0000     -10.590182      -288.1735
  19   2.0000      -8.325249      -226.5415
  20   2.0000      -8.325161      -226.5391
  21   2.0000      -6.172062      -167.9503
  22   2.0000      -6.171973      -167.9479
  23   2.0000      -6.169704      -167.8862
  24   2.0000      -6.169625      -167.8840
  25   2.0000      -6.166228      -167.7916
  26   2.0000      -6.166134      -167.7890
  27   2.0000      -1.145083       -31.1593
  28   2.0000      -1.028880       -27.9972
  29   2.0000      -0.979971       -26.6664
  30   2.0000      -0.939062       -25.5532
  31   2.0000      -0.928810       -25.2742
  32   2.0000      -0.906295       -24.6615
  33   2.0000      -0.876961       -23.8633
  34   2.0000      -0.842758       -22.9326
  35   2.0000      -0.836770       -22.7697
  36   2.0000      -0.827763       -22.5246
  37   2.0000      -0.763241       -20.7688
  38   2.0000      -0.751715       -20.4552
  39   2.0000      -0.721273       -19.6268
  40   2.0000      -0.712862       -19.3980
  41   2.0000      -0.705437       -19.1959
  42   2.0000      -0.660602       -17.9759
  43   2.0000      -0.640883       -17.4393
  44   2.0000      -0.607037       -16.5183
  45   2.0000      -0.604318       -16.4443
  46   2.0000      -0.585798       -15.9404
  47   2.0000      -0.549505       -14.9528
  48   2.0000      -0.547202       -14.8901
  49   2.0000      -0.535865       -14.5816
  50   2.0000      -0.527818       -14.3627
  51   2.0000      -0.517444       -14.0804
  52   2.0000      -0.507248       -13.8029
  53   2.0000      -0.492387       -13.3985
  54   2.0000      -0.481343       -13.0980
  55   2.0000      -0.470531       -12.8038
  56   2.0000      -0.468853       -12.7581
  57   2.0000      -0.464285       -12.6338
  58   2.0000      -0.458454       -12.4752
  59   2.0000      -0.441610       -12.0168
  60   2.0000      -0.439296       -11.9538
  61   2.0000      -0.423229       -11.5167
  62   2.0000      -0.417250       -11.3539
  63   2.0000      -0.408751       -11.1227
  64   2.0000      -0.403457       -10.9786
  65   2.0000      -0.388508       -10.5718
  66   2.0000      -0.384468       -10.4619
  67   2.0000      -0.380838       -10.3631
  68   2.0000      -0.353029        -9.6064
  69   2.0000      -0.339692        -9.2435
  70   2.0000      -0.299598        -8.1525
  71   2.0000      -0.283553        -7.7159
  72   2.0000      -0.277349        -7.5471
  73   2.0000      -0.265168        -7.2156
  74   2.0000      -0.255213        -6.9447
  75   0.0000      -0.073279        -1.9940
  76   0.0000      -0.002300        -0.0626
  77   0.0000       0.019625         0.5340
  78   0.0000       0.022576         0.6143
  79   0.0000       0.026546         0.7223

MULLIKEN ATOMIC CHARGES
-----------------------
   0 C :   -0.678606
   1 C :   -0.212992
   2 C :   -0.129612
   3 C :   -0.728989
   4 N :    0.117481
   5 C :   -0.059119
   6 S :   -0.673856
   7 C :    1.651431
   8 C :   -0.930713
   9 C :   -0.660518
  10 C :   -0.541190
  11 C :    0.698383
  12 C :   -0.528635
  13 C :   -0.689619
  14 C :   -0.907279
  15 C :    1.571949
  16 C :    0.704600
  17 C :   -0.148747
  18 S :   -0.696188
  19 H :    0.191114
  20 H :    0.189703
  21 H :    0.181695
  22 H :    0.151142
  23 H :    0.177016
  24 H :    0.192308
  25 H :    0.171295
  26 H :    0.229448
  27 H :    0.227809
  28 H :    0.113204
  29 H :    0.267501
  30 H :    0.181973
  31 H :    0.178510
  32 H :    0.269656
  33 H :    0.119845
Sum of atomic charges:   -0.0000000

LOEWDIN ATOMIC CHARGES
----------------------
   0 C :   -0.141497
   1 C :   -0.432944
   2 C :   -0.347911
   3 C :   -0.407693
   4 N :   -0.004035
   5 C :   -0.895062
   6 S :    0.881126
   7 C :   -0.282971
   8 C :   -0.046216
   9 C :   -0.055079
  10 C :    0.001226
  11 C :   -0.282314
  12 C :    0.001250
  13 C :   -0.055059
  14 C :   -0.046282
  15 C :   -0.283443
  16 C :   -0.167667
  17 C :   -0.893968
  18 S :    0.882594
  19 H :    0.097098
  20 H :    0.116810
  21 H :    0.114325
  22 H :    0.168759
  23 H :    0.157198
  24 H :    0.182135
  25 H :    0.188067
  26 H :    0.200818
  27 H :    0.199961
  28 H :    0.199015
  29 H :    0.177498
  30 H :    0.198846
  31 H :    0.198836
  32 H :    0.177468
  33 H :    0.199113

  Mayer bond orders larger than 0.100000
B(  0-C ,  1-C ) :   0.8223 B(  0-C ,  2-C ) :   0.1081 B(  0-C , 19-H ) :   0.9865
B(  0-C , 20-H ) :   0.9601 B(  0-C , 21-H ) :   0.9675 B(  1-C ,  2-C ) :   0.9088
B(  1-C , 22-H ) :   0.9899 B(  1-C , 23-H ) :   1.0004 B(  2-C ,  3-C ) :   0.8391
B(  2-C , 24-H ) :   0.9647 B(  2-C , 25-H ) :   0.9649 B(  3-C ,  4-N ) :   0.7424
B(  3-C , 26-H ) :   1.0116 B(  3-C , 27-H ) :   0.9977 B(  4-N ,  5-C ) :   1.1371
B(  4-N ,  6-S ) :   0.1201 B(  4-N ,  7-C ) :  -0.1528 B(  4-N , 15-C ) :  -0.1248
B(  4-N , 17-C ) :   1.1490 B(  5-C ,  6-S ) :   0.8996 B(  5-C , 10-C ) :   0.1337
B(  5-C , 11-C ) :  -0.1034 B(  5-C , 15-C ) :  -0.1854 B(  5-C , 16-C ) :   0.6415
B(  5-C , 17-C ) :   0.2457 B(  6-S ,  7-C ) :  -0.2328 B(  6-S ,  8-C ) :   0.2477
B(  6-S ,  9-C ) :   0.1827 B(  6-S , 17-C ) :   0.1021 B(  7-C ,  8-C ) :   0.5095
B(  7-C , 10-C ) :  -0.1678 B(  7-C , 11-C ) :   0.1809 B(  7-C , 13-C ) :   0.1777
B(  7-C , 14-C ) :  -0.2006 B(  7-C , 15-C ) :   0.1835 B(  7-C , 17-C ) :  -0.1919
B(  7-C , 28-H ) :  -0.1743 B(  8-C ,  9-C ) :   1.0498 B(  8-C , 10-C ) :   0.1670
B(  8-C , 14-C ) :   0.1051 B(  8-C , 15-C ) :  -0.1498 B(  8-C , 16-C ) :  -0.2710
B(  8-C , 28-H ) :   1.1901 B(  9-C , 10-C ) :   1.1371 B(  9-C , 12-C ) :  -0.2486
B(  9-C , 15-C ) :   0.1849 B(  9-C , 16-C ) :  -0.1220 B(  9-C , 29-H ) :   0.9356
B( 10-C , 11-C ) :   0.5671 B( 10-C , 12-C ) :  -0.4347 B( 10-C , 13-C ) :  -0.2531
B( 10-C , 16-C ) :   0.2092 B( 10-C , 30-H ) :   1.0564 B( 11-C , 12-C ) :   0.5649
B( 11-C , 15-C ) :   0.1471 B( 11-C , 16-C ) :  -0.3849 B( 11-C , 17-C ) :  -0.1333
B( 12-C , 13-C ) :   1.1288 B( 12-C , 14-C ) :   0.1476 B( 12-C , 15-C ) :  -0.1623
B( 12-C , 16-C ) :   0.2080 B( 12-C , 17-C ) :   0.1289 B( 12-C , 31-H ) :   1.0645
B( 13-C , 14-C ) :   1.0124 B( 13-C , 18-S ) :   0.1597 B( 13-C , 32-H ) :   0.9327
B( 14-C , 15-C ) :   0.4284 B( 14-C , 16-C ) :  -0.1612 B( 14-C , 17-C ) :   0.1008
B( 14-C , 18-S ) :   0.2440 B( 14-C , 33-H ) :   1.1814 B( 15-C , 18-S ) :  -0.1230
B( 15-C , 33-H ) :  -0.1948 B( 16-C , 17-C ) :   0.7155 B( 16-C , 18-S ) :  -0.1652
B( 17-C , 18-S ) :   1.0096

MP2 TOTAL ENERGY:    -1469.353077202 Eh

-----------------------------------------------------------------------------
         ABSORPTION SPECTRUM VIA TRANSITION ELECTRIC DIPOLE MOMENTS
-----------------------------------------------------------------------------
State   Energy    Wavelength  fosc         T2        TX        TY        TZ
        (cm-1)      (nm)                 (au**2)    (au)      (au)      (au)
-----------------------------------------------------------------------------
   1   15845.1    631.1   0.001222524   0.02540   0.15284  -0.01119  -0.04377
   2   19161.5    521.9   0.002500802   0.04297  -0.07483   0.19242  -0.01843
   3   22564.4    443.2   0.529292461   7.72232   2.77320  -0.03063   0.17527
   4   24950.4    400.8   0.111185919   1.46706   0.02156   1.20669  -0.10241
   5   28793.7    347.3   0.321819232   3.67952   0.03602   1.91374  -0.12570
   6   33213.2    301.1   0.034951324   0.34644  -0.01499  -0.58646   0.04773
   7   28518.8    350.6   0.007914599   0.09136   0.03545   0.29967  -0.01739
   8   33800.2    295.9   0.071516269   0.69656  -0.00808  -0.83322   0.04732
   9   32248.8    310.1   0.002636955   0.02692  -0.15963  -0.02128   0.03136
  10   37686.9    265.3   0.054220583   0.47364  -0.68360   0.01044  -0.07886

Dispersion correction           -0.041677124
FINAL SINGLE POINT ENERGY     -1468.279496460108

DIPOLE MOMENT
-------------
                                X             Y             Z
Electronic contribution:    -19.15674      -1.36989       2.92375
Nuclear contribution   :     16.27411       1.39851      -3.13548
                        -----------------------------------------
Total Dipole Moment    :     -2.88263       0.02862      -0.21173
                        -----------------------------------------
Magnitude (a.u.)       :      2.89053
Magnitude (Debye)      :      7.34715

Rotational constants in cm-1:     0.017962     0.008080     0.005707
Rotational constants in MHz :   538.498613   242.238253   171.102253

                             ****ORCA TERMINATED NORMALLY****
TOTAL RUN TIME: 0 days 4 hours 52 minutes 37 seconds 159 msec
