                         Program Version 5.0.2 -  RELEASE  -
|  1> ! pbe0 d3bj aug-cc-PVTZ RIJCOSX Opt
|  2> %maxcore 4000
|  3> %basis
|  4>  AuxJ "aug-cc-PVTZ/JK"
|  5>  AuxC "aug-cc-PVTZ/C"
|  6>  newGTO H "cc-PVTZ" end
|  7>  newAuxJGTO H "cc-PVTZ/JK" end
|  8>  newAuxCGTO H "cc-PVTZ/C" end
|  9> end
| 10> %cpcm
| 11>  SMD true
| 12>  SMDsolvent "dimethylsulfoxide"
| 13> end
| 14> %pal nprocs 4 end
| 15> * xyz 0 1
| 16> C          4.91900        0.91760       -0.09170
| 17> C          4.29310       -0.35910       -0.64060
| 18> C          2.77480       -0.26960       -0.77590
| 19> C          2.07810       -0.17250        0.58120
| 20> N          0.63210       -0.13660        0.42820
| 21> C         -0.04710       -1.32470        0.39580
| 22> S          0.76560       -2.76450        0.48790
| 23> C         -1.49030       -1.30430        0.27150
| 24> C         -2.23420       -2.47290        0.26980
| 25> C         -3.62250       -2.43400        0.15270
| 26> C         -4.28050       -1.23630        0.03590
| 27> C         -3.56480       -0.02210        0.03240
| 28> C         -4.20150        1.22970       -0.08680
| 29> C         -3.46810        2.38860       -0.08850
| 30> C         -2.07940        2.35000        0.02460
| 31> C         -1.41180        1.14210        0.14420
| 32> C         -2.15300       -0.06140        0.15230
| 33> C          0.03070        1.08210        0.26260
| 34> S          0.93500        2.46720        0.18770
| 35> H          6.00350        0.85470       -0.13960
| 36> H          4.63750        1.08160        0.94510
| 37> H          4.59860        1.77830       -0.67420
| 38> H          4.54860       -1.20260        0.00410
| 39> H          4.70950       -0.56110       -1.62980
| 40> H          2.40790       -1.15970       -1.29250
| 41> H          2.51280        0.60560       -1.37480
| 42> H          2.33270       -1.03960        1.19370
| 43> H          2.37890        0.73960        1.09740
| 44> H         -1.72410       -3.41940        0.36240
| 45> H         -4.17640       -3.36050        0.15470
| 46> H         -5.35630       -1.20550       -0.05570
| 47> H         -5.27740        1.25880       -0.17690
| 48> H         -3.96170        3.34430       -0.17890
| 49> H         -1.50940        3.26630        0.02140
| 50> *
| 51>
| 52>
| 53> $new_job
| 54> ! b2gp-plyp aug-cc-PVTZ RIJCOSX SP
| 55> %maxcore 4000
| 56> %basis
| 57>  AuxJ "aug-cc-PVTZ/JK"
| 58>  AuxC "aug-cc-PVTZ/C"
| 59>  newGTO H "cc-PVTZ" end
| 60>  newAuxJGTO H "cc-PVTZ/JK" end
| 61>  newAuxCGTO H "cc-PVTZ/C" end
| 62> end
| 63> %cpcm
| 64>  SMD true
| 65>  SMDsolvent "dimethylsulfoxide"
| 66> end
| 67> %pal nprocs 4 end
| 68> %tddft
| 69>  nroots 10
| 70>  maxdim 7
| 71> end
| 72> * xyzfile 0 1
| 73>
| 74>                          ****END OF INPUT****
 Total Charge           Charge          ....    0
 Multiplicity           Mult            ....    1
 Number of Electrons    NEL             ....  150
Dispersion correction           -0.046327233
FINAL SINGLE POINT ENERGY     -1469.145068571552
Dispersion correction            ... done
Dispersion correction           -0.046154158
FINAL SINGLE POINT ENERGY     -1469.146437450078
Dispersion correction            ... done
Dispersion correction           -0.046120663
FINAL SINGLE POINT ENERGY     -1469.146640663847
Dispersion correction            ... done
FINAL SINGLE POINT ENERGY     -1469.146668991321
FINAL SINGLE POINT ENERGY     -1469.146676591026
Dispersion correction            ... done
Dispersion correction           -0.046116739
FINAL SINGLE POINT ENERGY     -1469.146675734689
Dispersion correction            ... done
                    ***********************HURRAY********************
Dispersion correction           -0.046114363
FINAL SINGLE POINT ENERGY     -1469.146672874690

CARTESIAN COORDINATES (ANGSTROEM)
---------------------------------
  C      4.976073    0.830041   -0.026729
  C      4.301006   -0.376998   -0.656164
  C      2.793984   -0.235128   -0.812809
  C      2.089197   -0.113802    0.526153
  N      0.628450   -0.093515    0.382486
  C     -0.033951   -1.307214    0.387475
  S      0.801013   -2.741164    0.516423
  C     -1.487109   -1.286642    0.268944
  C     -2.224814   -2.458459    0.275120
  C     -3.616001   -2.441454    0.171177
  C     -4.285954   -1.249601    0.059838
  C     -3.577112   -0.032944    0.046596
  C     -4.240046    1.204119   -0.066198
  C     -3.525837    2.375407   -0.079003
  C     -2.133995    2.350783    0.013719
  C     -1.440647    1.157580    0.127103
  C     -2.160750   -0.054030    0.150065
  C      0.013879    1.134904    0.223513
  S      0.906545    2.536655    0.138311
  H      6.061152    0.704831   -0.005316
  H      4.647987    0.992543    1.002576
  H      4.758878    1.741686   -0.590639
  H      4.517493   -1.271075   -0.061001
  H      4.733395   -0.557216   -1.644573
  H      2.398426   -1.108093   -1.337657
  H      2.562387    0.644082   -1.420784
  H      2.333388   -0.962715    1.159850
  H      2.365482    0.804899    1.034285
  H     -1.702110   -3.401013    0.364081
  H     -4.161007   -3.376788    0.179221
  H     -5.366526   -1.225052   -0.020283
  H     -5.321182    1.212148   -0.141644
  H     -4.036118    3.326464   -0.163286
  H     -1.575674    3.276861   -0.001150

 Multiplicity           Mult            ....    1
 Number of Electrons    NEL             ....  150
 Basis Dimension        Dim             .... 1092

ORBITAL ENERGIES
----------------

  NO   OCC          E(Eh)            E(eV)
   0   2.0000     -90.591178     -2465.1113
   1   2.0000     -90.591165     -2465.1109
   2   2.0000     -15.111522      -411.2054
   3   2.0000     -10.899837      -296.5997
   4   2.0000     -10.899817      -296.5991
   5   2.0000     -10.811989      -294.2092
   6   2.0000     -10.806326      -294.0551
   7   2.0000     -10.806244      -294.0528
   8   2.0000     -10.802687      -293.9561
   9   2.0000     -10.801984      -293.9369
  10   2.0000     -10.801973      -293.9366
  11   2.0000     -10.801844      -293.9331
  12   2.0000     -10.801380      -293.9205
  13   2.0000     -10.797174      -293.8060
  14   2.0000     -10.787550      -293.5442
  15   2.0000     -10.787533      -293.5437
  16   2.0000     -10.758604      -292.7565
  17   2.0000     -10.758105      -292.7429
  18   2.0000     -10.749326      -292.5040
  19   2.0000      -8.479268      -230.7326
  20   2.0000      -8.479184      -230.7303
  21   2.0000      -6.284093      -170.9989
  22   2.0000      -6.284008      -170.9965
  23   2.0000      -6.281934      -170.9401
  24   2.0000      -6.281859      -170.9381
  25   2.0000      -6.279169      -170.8649
  26   2.0000      -6.279080      -170.8624
  27   2.0000      -1.196134       -32.5485
  28   2.0000      -1.077151       -29.3108
  29   2.0000      -1.026401       -27.9298
  30   2.0000      -0.983940       -26.7744
  31   2.0000      -0.972659       -26.4674
  32   2.0000      -0.950162       -25.8552
  33   2.0000      -0.919991       -25.0342
  34   2.0000      -0.883597       -24.0439
  35   2.0000      -0.877869       -23.8880
  36   2.0000      -0.867494       -23.6057
  37   2.0000      -0.801054       -21.7978
  38   2.0000      -0.789235       -21.4762
  39   2.0000      -0.757727       -20.6188
  40   2.0000      -0.748767       -20.3750
  41   2.0000      -0.739251       -20.1161
  42   2.0000      -0.694820       -18.9070
  43   2.0000      -0.672473       -18.2989
  44   2.0000      -0.638257       -17.3679
  45   2.0000      -0.636444       -17.3185
  46   2.0000      -0.616190       -16.7674
  47   2.0000      -0.578043       -15.7294
  48   2.0000      -0.575688       -15.6653
  49   2.0000      -0.563441       -15.3320
  50   2.0000      -0.555977       -15.1289
  51   2.0000      -0.544671       -14.8212
  52   2.0000      -0.535162       -14.5625
  53   2.0000      -0.518742       -14.1157
  54   2.0000      -0.507556       -13.8113
  55   2.0000      -0.496331       -13.5059
  56   2.0000      -0.494009       -13.4427
  57   2.0000      -0.489963       -13.3326
  58   2.0000      -0.484820       -13.1926
  59   2.0000      -0.465959       -12.6794
  60   2.0000      -0.463435       -12.6107
  61   2.0000      -0.446026       -12.1370
  62   2.0000      -0.438867       -11.9422
  63   2.0000      -0.432898       -11.7797
  64   2.0000      -0.427372       -11.6294
  65   2.0000      -0.411273       -11.1913
  66   2.0000      -0.407112       -11.0781
  67   2.0000      -0.403346       -10.9756
  68   2.0000      -0.370665       -10.0863
  69   2.0000      -0.357415        -9.7258
  70   2.0000      -0.313405        -8.5282
  71   2.0000      -0.302225        -8.2240
  72   2.0000      -0.294052        -8.0016
  73   2.0000      -0.284267        -7.7353
  74   2.0000      -0.267880        -7.2894
  75   0.0000      -0.058830        -1.6008
  76   0.0000       0.014478         0.3940
  77   0.0000       0.026185         0.7125
  78   0.0000       0.032728         0.8906
  79   0.0000       0.033611         0.9146

MULLIKEN ATOMIC CHARGES
-----------------------
   0 C :   -0.708593
   1 C :   -0.230728
   2 C :   -0.166957
   3 C :   -0.770022
   4 N :    0.082343
   5 C :   -0.017886
   6 S :   -0.701929
   7 C :    1.621983
   8 C :   -0.926029
   9 C :   -0.667282
  10 C :   -0.512525
  11 C :    0.655482
  12 C :   -0.493038
  13 C :   -0.707027
  14 C :   -0.901181
  15 C :    1.527285
  16 C :    0.701754
  17 C :   -0.098333
  18 S :   -0.724746
  19 H :    0.202274
  20 H :    0.201523
  21 H :    0.193115
  22 H :    0.162944
  23 H :    0.188779
  24 H :    0.206580
  25 H :    0.186543
  26 H :    0.247217
  27 H :    0.247759
  28 H :    0.124737
  29 H :    0.276974
  30 H :    0.196058
  31 H :    0.190351
  32 H :    0.280101
  33 H :    0.132474
Sum of atomic charges:   -0.0000000

LOEWDIN ATOMIC CHARGES
----------------------
   0 C :   -0.140996
   1 C :   -0.432442
   2 C :   -0.347994
   3 C :   -0.408698
   4 N :   -0.003644
   5 C :   -0.895197
   6 S :    0.877707
   7 C :   -0.282559
   8 C :   -0.045125
   9 C :   -0.054431
  10 C :    0.002526
  11 C :   -0.282043
  12 C :    0.002561
  13 C :   -0.054421
  14 C :   -0.045204
  15 C :   -0.283043
  16 C :   -0.169050
  17 C :   -0.894119
  18 S :    0.879155
  19 H :    0.096838
  20 H :    0.116478
  21 H :    0.114039
  22 H :    0.168459
  23 H :    0.156936
  24 H :    0.181812
  25 H :    0.187747
  26 H :    0.200719
  27 H :    0.199875
  28 H :    0.199866
  29 H :    0.177599
  30 H :    0.199560
  31 H :    0.199550
  32 H :    0.177567
  33 H :    0.199971

  Mayer bond orders larger than 0.100000
B(  0-C ,  1-C ) :   0.8219 B(  0-C ,  2-C ) :   0.1127 B(  0-C , 19-H ) :   0.9852
B(  0-C , 20-H ) :   0.9553 B(  0-C , 21-H ) :   0.9645 B(  1-C ,  2-C ) :   0.9166
B(  1-C , 22-H ) :   0.9860 B(  1-C , 23-H ) :   0.9937 B(  2-C ,  3-C ) :   0.8450
B(  2-C , 24-H ) :   0.9595 B(  2-C , 25-H ) :   0.9590 B(  3-C ,  4-N ) :   0.7759
B(  3-C , 26-H ) :   1.0053 B(  3-C , 27-H ) :   0.9901 B(  4-N ,  5-C ) :   1.1577
B(  4-N ,  6-S ) :   0.1339 B(  4-N ,  7-C ) :  -0.1693 B(  4-N , 15-C ) :  -0.1411
B(  4-N , 17-C ) :   1.1793 B(  5-C ,  6-S ) :   0.8677 B(  5-C , 10-C ) :   0.1419
B(  5-C , 15-C ) :  -0.1754 B(  5-C , 16-C ) :   0.6075 B(  5-C , 17-C ) :   0.2556
B(  6-S ,  7-C ) :  -0.2282 B(  6-S ,  8-C ) :   0.2614 B(  6-S ,  9-C ) :   0.1840
B(  6-S , 17-C ) :   0.1061 B(  7-C ,  8-C ) :   0.5046 B(  7-C , 10-C ) :  -0.1698
B(  7-C , 11-C ) :   0.1770 B(  7-C , 13-C ) :   0.1930 B(  7-C , 14-C ) :  -0.2295
B(  7-C , 15-C ) :   0.1911 B(  7-C , 17-C ) :  -0.1826 B(  7-C , 28-H ) :  -0.1686
B(  8-C ,  9-C ) :   1.0127 B(  8-C , 10-C ) :   0.1526 B(  8-C , 14-C ) :   0.1338
B(  8-C , 15-C ) :  -0.1577 B(  8-C , 16-C ) :  -0.2334 B(  8-C , 28-H ) :   1.1897
B(  9-C , 10-C ) :   1.1118 B(  9-C , 11-C ) :  -0.1183 B(  9-C , 12-C ) :  -0.2724
B(  9-C , 15-C ) :   0.1963 B(  9-C , 29-H ) :   0.9437 B( 10-C , 11-C ) :   0.5941
B( 10-C , 12-C ) :  -0.4820 B( 10-C , 13-C ) :  -0.2798 B( 10-C , 16-C ) :   0.2246
B( 10-C , 30-H ) :   1.0531 B( 11-C , 12-C ) :   0.5977 B( 11-C , 15-C ) :   0.1381
B( 11-C , 16-C ) :  -0.4208 B( 11-C , 17-C ) :  -0.1198 B( 12-C , 13-C ) :   1.0991
B( 12-C , 14-C ) :   0.1296 B( 12-C , 15-C ) :  -0.1531 B( 12-C , 16-C ) :   0.2093
B( 12-C , 17-C ) :   0.1324 B( 12-C , 31-H ) :   1.0626 B( 13-C , 14-C ) :   0.9746
B( 13-C , 18-S ) :   0.1616 B( 13-C , 32-H ) :   0.9392 B( 14-C , 15-C ) :   0.4081
B( 14-C , 16-C ) :  -0.1101 B( 14-C , 17-C ) :   0.1094 B( 14-C , 18-S ) :   0.2590
B( 14-C , 33-H ) :   1.1792 B( 15-C , 18-S ) :  -0.1221 B( 15-C , 33-H ) :  -0.1930
B( 16-C , 17-C ) :   0.6887 B( 16-C , 18-S ) :  -0.1702 B( 17-C , 18-S ) :   0.9930

MP2 TOTAL ENERGY:    -1469.135161464 Eh

-----------------------------------------------------------------------------
         ABSORPTION SPECTRUM VIA TRANSITION ELECTRIC DIPOLE MOMENTS
-----------------------------------------------------------------------------
State   Energy    Wavelength  fosc         T2        TX        TY        TZ
        (cm-1)      (nm)                 (au**2)    (au)      (au)      (au)
-----------------------------------------------------------------------------
   1   16987.4    588.7   0.001869962   0.03624   0.18537  -0.01160  -0.04177
   2   20186.1    495.4   0.003122306   0.05092   0.12238  -0.18841   0.02118
   3   23026.0    434.3   0.542742749   7.75981  -2.77994   0.02777  -0.17604
   4   25846.3    386.9   0.111457633   1.41967  -0.02157  -1.18690   0.10230
   5   29553.4    338.4   0.363394629   4.04805  -0.03821  -2.00726   0.13235
   6   33834.5    295.6   0.008343386   0.08118   0.00833   0.28363  -0.02584
   7   33724.1    296.5   0.118827411   1.15998  -0.04185  -1.07448   0.06097
   8   32137.9    311.2   0.043169901   0.44222   0.06151  -0.66095   0.03983
   9   39110.7    255.7   0.038901506   0.32745   0.57006   0.04316   0.02492
  10   40121.1    249.2   0.599679517   4.92065  -0.03527  -2.21445   0.12501

Dispersion correction           -0.031804086
FINAL SINGLE POINT ENERGY     -1467.773859880472

DIPOLE MOMENT
-------------
                                X             Y             Z
Electronic contribution:    -19.24888      -1.37077       2.91938
Nuclear contribution   :     16.27402       1.40115      -3.13331
                        -----------------------------------------
Total Dipole Moment    :     -2.97486       0.03038      -0.21393
                        -----------------------------------------
Magnitude (a.u.)       :      2.98270
Magnitude (Debye)      :      7.58141

Rotational constants in cm-1:     0.017963     0.008080     0.005707
Rotational constants in MHz :   538.502461   242.237829   171.099320

                             ****ORCA TERMINATED NORMALLY****
TOTAL RUN TIME: 0 days 5 hours 24 minutes 20 seconds 170 msec
