                         Program Version 5.0.2 -  RELEASE  -
|  1> ! pbe0 aug-cc-PVTZ RIJCOSX Opt
|  2> %maxcore 4000
|  3> %basis
|  4>  AuxJ "aug-cc-PVTZ/JK"
|  5>  AuxC "aug-cc-PVTZ/C"
|  6>  newGTO H "cc-PVTZ" end
|  7>  newAuxJGTO H "cc-PVTZ/JK" end
|  8>  newAuxCGTO H "cc-PVTZ/C" end
|  9> end
| 10> %cpcm
| 11>  SMD true
| 12>  SMDsolvent "dimethylsulfoxide"
| 13> end
| 14> %pal nprocs 4 end
| 15> * xyz 0 1
| 16> C          4.91900        0.91760       -0.09170
| 17> C          4.29310       -0.35910       -0.64060
| 18> C          2.77480       -0.26960       -0.77590
| 19> C          2.07810       -0.17250        0.58120
| 20> N          0.63210       -0.13660        0.42820
| 21> C         -0.04710       -1.32470        0.39580
| 22> S          0.76560       -2.76450        0.48790
| 23> C         -1.49030       -1.30430        0.27150
| 24> C         -2.23420       -2.47290        0.26980
| 25> C         -3.62250       -2.43400        0.15270
| 26> C         -4.28050       -1.23630        0.03590
| 27> C         -3.56480       -0.02210        0.03240
| 28> C         -4.20150        1.22970       -0.08680
| 29> C         -3.46810        2.38860       -0.08850
| 30> C         -2.07940        2.35000        0.02460
| 31> C         -1.41180        1.14210        0.14420
| 32> C         -2.15300       -0.06140        0.15230
| 33> C          0.03070        1.08210        0.26260
| 34> S          0.93500        2.46720        0.18770
| 35> H          6.00350        0.85470       -0.13960
| 36> H          4.63750        1.08160        0.94510
| 37> H          4.59860        1.77830       -0.67420
| 38> H          4.54860       -1.20260        0.00410
| 39> H          4.70950       -0.56110       -1.62980
| 40> H          2.40790       -1.15970       -1.29250
| 41> H          2.51280        0.60560       -1.37480
| 42> H          2.33270       -1.03960        1.19370
| 43> H          2.37890        0.73960        1.09740
| 44> H         -1.72410       -3.41940        0.36240
| 45> H         -4.17640       -3.36050        0.15470
| 46> H         -5.35630       -1.20550       -0.05570
| 47> H         -5.27740        1.25880       -0.17690
| 48> H         -3.96170        3.34430       -0.17890
| 49> H         -1.50940        3.26630        0.02140
| 50> *
| 51>
| 52>
| 53> $new_job
| 54> ! pbe0 aug-cc-PVTZ RIJCOSX SP
| 55> %maxcore 4000
| 56> %basis
| 57>  AuxJ "aug-cc-PVTZ/JK"
| 58>  AuxC "aug-cc-PVTZ/C"
| 59>  newGTO H "cc-PVTZ" end
| 60>  newAuxJGTO H "cc-PVTZ/JK" end
| 61>  newAuxCGTO H "cc-PVTZ/C" end
| 62> end
| 63> %cpcm
| 64>  SMD true
| 65>  SMDsolvent "dimethylsulfoxide"
| 66> end
| 67> %pal nprocs 4 end
| 68> %tddft
| 69>  nroots 10
| 70>  maxdim 7
| 71> end
| 72> * xyzfile 0 1
| 73>
| 74>                          ****END OF INPUT****
 Total Charge           Charge          ....    0
 Multiplicity           Mult            ....    1
 Number of Electrons    NEL             ....  150
FINAL SINGLE POINT ENERGY     -1469.098741330944
FINAL SINGLE POINT ENERGY     -1469.100334606662
FINAL SINGLE POINT ENERGY     -1469.100552092426
FINAL SINGLE POINT ENERGY     -1469.100591663766
FINAL SINGLE POINT ENERGY     -1469.100604596761
FINAL SINGLE POINT ENERGY     -1469.100605826979
                    ***********************HURRAY********************
FINAL SINGLE POINT ENERGY     -1469.100604412976

CARTESIAN COORDINATES (ANGSTROEM)
---------------------------------
  C      5.007725    0.813118   -0.024901
  C      4.309427   -0.382160   -0.652917
  C      2.803466   -0.219315   -0.816593
  C      2.087320   -0.101127    0.518671
  N      0.624085   -0.084645    0.373497
  C     -0.036850   -1.300640    0.383489
  S      0.799510   -2.734302    0.515795
  C     -1.491353   -1.284015    0.268030
  C     -2.226321   -2.458042    0.275834
  C     -3.617987   -2.445368    0.174672
  C     -4.291817   -1.255545    0.063813
  C     -3.586416   -0.036515    0.048638
  C     -4.253511    1.198731   -0.063945
  C     -3.542789    2.372225   -0.078394
  C     -2.150571    2.351721    0.013174
  C     -1.452626    1.160701    0.126661
  C     -2.169473   -0.053303    0.149988
  C      0.003060    1.142947    0.222947
  S      0.887825    2.551127    0.148711
  H      6.089612    0.662204    0.002789
  H      4.679130    0.988588    1.002275
  H      4.816821    1.727260   -0.594414
  H      4.510655   -1.279053   -0.056423
  H      4.741212   -0.571606   -1.640122
  H      2.403952   -1.084242   -1.352204
  H      2.587203    0.666071   -1.421601
  H      2.330720   -0.950851    1.152125
  H      2.359512    0.817131    1.030678
  H     -1.701584   -3.399754    0.363764
  H     -4.160213   -3.382549    0.184161
  H     -5.372816   -1.234773   -0.014470
  H     -5.334963    1.203907   -0.138166
  H     -4.056005    3.321919   -0.162979
  H     -1.596041    3.280257   -0.002881

 Multiplicity           Mult            ....    1
 Number of Electrons    NEL             ....  150
 Basis Dimension        Dim             .... 1092

ORBITAL ENERGIES
----------------

  NO   OCC          E(Eh)            E(eV)
   0   2.0000     -89.018299     -2422.3111
   1   2.0000     -89.018272     -2422.3103
   2   2.0000     -14.474880      -393.8815
   3   2.0000     -10.338408      -281.3224
   4   2.0000     -10.338363      -281.3212
   5   2.0000     -10.261628      -279.2331
   6   2.0000     -10.260143      -279.1927
   7   2.0000     -10.260037      -279.1898
   8   2.0000     -10.255022      -279.0533
   9   2.0000     -10.250056      -278.9182
  10   2.0000     -10.248816      -278.8844
  11   2.0000     -10.248789      -278.8837
  12   2.0000     -10.248307      -278.8706
  13   2.0000     -10.248280      -278.8699
  14   2.0000     -10.239792      -278.6389
  15   2.0000     -10.239760      -278.6380
  16   2.0000     -10.213826      -277.9323
  17   2.0000     -10.212507      -277.8964
  18   2.0000     -10.201180      -277.5882
  19   2.0000      -7.977669      -217.0834
  20   2.0000      -7.977617      -217.0820
  21   2.0000      -5.914632      -160.9453
  22   2.0000      -5.914580      -160.9439
  23   2.0000      -5.911968      -160.8728
  24   2.0000      -5.911922      -160.8716
  25   2.0000      -5.906690      -160.7292
  26   2.0000      -5.906640      -160.7278
  27   2.0000      -1.039220       -28.2786
  28   2.0000      -0.929767       -25.3003
  29   2.0000      -0.884530       -24.0693
  30   2.0000      -0.846702       -23.0399
  31   2.0000      -0.838676       -22.8215
  32   2.0000      -0.815381       -22.1876
  33   2.0000      -0.788454       -21.4549
  34   2.0000      -0.758839       -20.6491
  35   2.0000      -0.752139       -20.4667
  36   2.0000      -0.746044       -20.3009
  37   2.0000      -0.685732       -18.6597
  38   2.0000      -0.674788       -18.3619
  39   2.0000      -0.646642       -17.5960
  40   2.0000      -0.639284       -17.3958
  41   2.0000      -0.636992       -17.3334
  42   2.0000      -0.589811       -16.0496
  43   2.0000      -0.577650       -15.7186
  44   2.0000      -0.543750       -14.7962
  45   2.0000      -0.538204       -14.6453
  46   2.0000      -0.524227       -14.2649
  47   2.0000      -0.492562       -13.4033
  48   2.0000      -0.489149       -13.3104
  49   2.0000      -0.481717       -13.1082
  50   2.0000      -0.470253       -12.7962
  51   2.0000      -0.462228       -12.5779
  52   2.0000      -0.449890       -12.2421
  53   2.0000      -0.439812       -11.9679
  54   2.0000      -0.429974       -11.7002
  55   2.0000      -0.420092       -11.4313
  56   2.0000      -0.416186       -11.3250
  57   2.0000      -0.412734       -11.2311
  58   2.0000      -0.403814       -10.9883
  59   2.0000      -0.393241       -10.7006
  60   2.0000      -0.391528       -10.6540
  61   2.0000      -0.383639       -10.4393
  62   2.0000      -0.371925       -10.1206
  63   2.0000      -0.359227        -9.7751
  64   2.0000      -0.354034        -9.6338
  65   2.0000      -0.342935        -9.3317
  66   2.0000      -0.339637        -9.2420
  67   2.0000      -0.334248        -9.0953
  68   2.0000      -0.321328        -8.7438
  69   2.0000      -0.308801        -8.4029
  70   2.0000      -0.279070        -7.5939
  71   2.0000      -0.254906        -6.9363
  72   2.0000      -0.246105        -6.6969
  73   2.0000      -0.238257        -6.4833
  74   2.0000      -0.230438        -6.2705
  75   0.0000      -0.115655        -3.1471
  76   0.0000      -0.052094        -1.4176
  77   0.0000      -0.027238        -0.7412
  78   0.0000      -0.023502        -0.6395
  79   0.0000       0.003458         0.0941

MULLIKEN ATOMIC CHARGES
-----------------------
   0 C :   -0.604635
   1 C :   -0.217838
   2 C :   -0.102336
   3 C :   -0.751522
   4 N :    0.282911
   5 C :   -0.152313
   6 S :   -0.614413
   7 C :    1.530862
   8 C :   -0.885482
   9 C :   -0.542782
  10 C :   -0.551543
  11 C :    0.586456
  12 C :   -0.542178
  13 C :   -0.558454
  14 C :   -0.853018
  15 C :    1.496532
  16 C :    0.443362
  17 C :   -0.246207
  18 S :   -0.635912
  19 H :    0.172579
  20 H :    0.178329
  21 H :    0.166325
  22 H :    0.148502
  23 H :    0.167797
  24 H :    0.186189
  25 H :    0.166988
  26 H :    0.217929
  27 H :    0.233428
  28 H :    0.150919
  29 H :    0.282113
  30 H :    0.207685
  31 H :    0.205621
  32 H :    0.282408
  33 H :    0.151701
Sum of atomic charges:   -0.0000000

LOEWDIN ATOMIC CHARGES
----------------------
   0 C :   -0.143194
   1 C :   -0.439586
   2 C :   -0.348970
   3 C :   -0.406344
   4 N :   -0.004951
   5 C :   -0.900283
   6 S :    0.894526
   7 C :   -0.288019
   8 C :   -0.050291
   9 C :   -0.057130
  10 C :   -0.002627
  11 C :   -0.286239
  12 C :   -0.002590
  13 C :   -0.057063
  14 C :   -0.050311
  15 C :   -0.288409
  16 C :   -0.168949
  17 C :   -0.899347
  18 S :    0.895175
  19 H :    0.099340
  20 H :    0.118247
  21 H :    0.115603
  22 H :    0.171508
  23 H :    0.160224
  24 H :    0.185192
  25 H :    0.190344
  26 H :    0.203655
  27 H :    0.202503
  28 H :    0.199752
  29 H :    0.179584
  30 H :    0.199640
  31 H :    0.199632
  32 H :    0.179564
  33 H :    0.199817

  Mayer bond orders larger than 0.100000
B(  0-C ,  1-C ) :   0.8865 B(  0-C , 19-H ) :   0.9794 B(  0-C , 20-H ) :   0.9544
B(  0-C , 21-H ) :   0.9635 B(  1-C ,  2-C ) :   0.9199 B(  1-C , 22-H ) :   0.9786
B(  1-C , 23-H ) :   0.9861 B(  2-C ,  3-C ) :   0.8035 B(  2-C , 24-H ) :   0.9594
B(  2-C , 25-H ) :   0.9623 B(  3-C ,  4-N ) :   0.6934 B(  3-C , 26-H ) :   1.0117
B(  3-C , 27-H ) :   0.9750 B(  4-N ,  5-C ) :   1.1428 B(  4-N ,  7-C ) :  -0.1428
B(  4-N , 15-C ) :  -0.1405 B(  4-N , 17-C ) :   1.1358 B(  5-C ,  6-S ) :   1.2227
B(  5-C ,  7-C ) :   0.1950 B(  5-C , 10-C ) :   0.1028 B(  5-C , 11-C ) :  -0.1027
B(  5-C , 15-C ) :  -0.2066 B(  5-C , 16-C ) :   0.5681 B(  5-C , 17-C ) :   0.1715
B(  6-S ,  7-C ) :  -0.4311 B(  6-S ,  8-C ) :   0.2211 B(  6-S ,  9-C ) :   0.1526
B(  7-C ,  8-C ) :   0.8417 B(  7-C , 10-C ) :  -0.1469 B(  7-C , 12-C ) :   0.1008
B(  7-C , 13-C ) :   0.1336 B(  7-C , 16-C ) :   0.3888 B(  7-C , 17-C ) :  -0.2169
B(  8-C ,  9-C ) :   1.2168 B(  8-C , 10-C ) :   0.1595 B(  8-C , 16-C ) :  -0.2369
B(  8-C , 28-H ) :   1.0659 B(  9-C , 10-C ) :   1.2617 B(  9-C , 12-C ) :  -0.1627
B(  9-C , 15-C ) :   0.1398 B(  9-C , 16-C ) :  -0.1119 B(  9-C , 29-H ) :   0.8650
B( 10-C , 11-C ) :   0.7570 B( 10-C , 12-C ) :  -0.3166 B( 10-C , 13-C ) :  -0.1628
B( 10-C , 15-C ) :   0.1209 B( 10-C , 16-C ) :   0.1603 B( 10-C , 30-H ) :   0.9574
B( 11-C , 12-C ) :   0.7528 B( 11-C , 17-C ) :  -0.1297 B( 12-C , 13-C ) :   1.2655
B( 12-C , 14-C ) :   0.1460 B( 12-C , 15-C ) :  -0.1374 B( 12-C , 16-C ) :   0.1568
B( 12-C , 17-C ) :   0.1004 B( 12-C , 31-H ) :   0.9624 B( 13-C , 14-C ) :   1.1917
B( 13-C , 18-S ) :   0.1240 B( 13-C , 32-H ) :   0.8645 B( 14-C , 15-C ) :   0.8146
B( 14-C , 16-C ) :  -0.1869 B( 14-C , 18-S ) :   0.2016 B( 14-C , 33-H ) :   1.0592
B( 15-C , 16-C ) :   0.3690 B( 15-C , 17-C ) :   0.1737 B( 15-C , 18-S ) :  -0.3634
B( 16-C , 17-C ) :   0.6248 B( 16-C , 18-S ) :  -0.1035 B( 17-C , 18-S ) :   1.3215

-----------------------------------------------------------------------------
         ABSORPTION SPECTRUM VIA TRANSITION ELECTRIC DIPOLE MOMENTS
-----------------------------------------------------------------------------
State   Energy    Wavelength  fosc         T2        TX        TY        TZ
        (cm-1)      (nm)                 (au**2)    (au)      (au)      (au)
-----------------------------------------------------------------------------
   1   16079.5    621.9   0.000550962   0.01128  -0.09695   0.00842   0.04255
   2   19408.8    515.2   0.002367034   0.04015  -0.02765   0.19786  -0.01536
   3   23748.3    421.1   0.512552927   7.10530   2.66039  -0.02448   0.16446
   4   26522.0    377.0   0.115928370   1.43899   0.01662   1.19590  -0.09245
   5   29640.2    337.4   0.186703195   2.07370  -0.01912  -1.43710   0.08992
   6   30527.9    327.6   0.016806303   0.18124  -0.03121  -0.42373   0.02677
   7   33664.8    297.0   0.004901870   0.04794  -0.02031  -0.21799  -0.00207
   8   33926.1    294.8   0.155777034   1.51163  -0.02228  -1.22598   0.09000
   9   35258.6    283.6   0.000374383   0.00350   0.00438   0.05886   0.00343
  10   37681.2    265.4   0.001723374   0.01506  -0.12124   0.01750   0.00709

FINAL SINGLE POINT ENERGY     -1469.027340858344

DIPOLE MOMENT
-------------
                                X             Y             Z
Electronic contribution:    -19.04596      -1.31408       2.92651
Nuclear contribution   :     16.41503       1.32392      -3.14408
                        -----------------------------------------
Total Dipole Moment    :     -2.63093       0.00984      -0.21758
                        -----------------------------------------
Magnitude (a.u.)       :      2.63993
Magnitude (Debye)      :      6.71016

Rotational constants in cm-1:     0.017948     0.008038     0.005684
Rotational constants in MHz :   538.062010   240.963485   170.411067

                             ****ORCA TERMINATED NORMALLY****
TOTAL RUN TIME: 0 days 2 hours 30 minutes 55 seconds 817 msec
