                         Program Version 5.0.2 -  RELEASE  -
|  1> ! wb97x-d3 aug-cc-PVTZ RIJCOSX Opt
|  2> %maxcore 4000
|  3> %basis
|  4>  AuxJ "aug-cc-PVTZ/JK"
|  5>  AuxC "aug-cc-PVTZ/C"
|  6>  newGTO H "cc-PVTZ" end
|  7>  newAuxJGTO H "cc-PVTZ/JK" end
|  8>  newAuxCGTO H "cc-PVTZ/C" end
|  9> end
| 10> %cpcm
| 11>  SMD true
| 12>  SMDsolvent "dimethylsulfoxide"
| 13> end
| 14> %pal nprocs 4 end
| 15> * xyz 0 1
| 16> C          4.91900        0.91760       -0.09170
| 17> C          4.29310       -0.35910       -0.64060
| 18> C          2.77480       -0.26960       -0.77590
| 19> C          2.07810       -0.17250        0.58120
| 20> N          0.63210       -0.13660        0.42820
| 21> C         -0.04710       -1.32470        0.39580
| 22> S          0.76560       -2.76450        0.48790
| 23> C         -1.49030       -1.30430        0.27150
| 24> C         -2.23420       -2.47290        0.26980
| 25> C         -3.62250       -2.43400        0.15270
| 26> C         -4.28050       -1.23630        0.03590
| 27> C         -3.56480       -0.02210        0.03240
| 28> C         -4.20150        1.22970       -0.08680
| 29> C         -3.46810        2.38860       -0.08850
| 30> C         -2.07940        2.35000        0.02460
| 31> C         -1.41180        1.14210        0.14420
| 32> C         -2.15300       -0.06140        0.15230
| 33> C          0.03070        1.08210        0.26260
| 34> S          0.93500        2.46720        0.18770
| 35> H          6.00350        0.85470       -0.13960
| 36> H          4.63750        1.08160        0.94510
| 37> H          4.59860        1.77830       -0.67420
| 38> H          4.54860       -1.20260        0.00410
| 39> H          4.70950       -0.56110       -1.62980
| 40> H          2.40790       -1.15970       -1.29250
| 41> H          2.51280        0.60560       -1.37480
| 42> H          2.33270       -1.03960        1.19370
| 43> H          2.37890        0.73960        1.09740
| 44> H         -1.72410       -3.41940        0.36240
| 45> H         -4.17640       -3.36050        0.15470
| 46> H         -5.35630       -1.20550       -0.05570
| 47> H         -5.27740        1.25880       -0.17690
| 48> H         -3.96170        3.34430       -0.17890
| 49> H         -1.50940        3.26630        0.02140
| 50> *
| 51>
| 52>
| 53> $new_job
| 54> ! wb97x-d3 aug-cc-PVTZ RIJCOSX SP
| 55> %maxcore 4000
| 56> %basis
| 57>  AuxJ "aug-cc-PVTZ/JK"
| 58>  AuxC "aug-cc-PVTZ/C"
| 59>  newGTO H "cc-PVTZ" end
| 60>  newAuxJGTO H "cc-PVTZ/JK" end
| 61>  newAuxCGTO H "cc-PVTZ/C" end
| 62> end
| 63> %cpcm
| 64>  SMD true
| 65>  SMDsolvent "dimethylsulfoxide"
| 66> end
| 67> %pal nprocs 4 end
| 68> %tddft
| 69>  nroots 10
| 70>  maxdim 7
| 71> end
| 72> * xyzfile 0 1
| 73>
| 74>                          ****END OF INPUT****
 Total Charge           Charge          ....    0
 Multiplicity           Mult            ....    1
 Number of Electrons    NEL             ....  150
Dispersion correction           -0.016268141
FINAL SINGLE POINT ENERGY     -1469.973962296132
Dispersion correction            ... done
Dispersion correction           -0.016212093
FINAL SINGLE POINT ENERGY     -1469.975906104320
Dispersion correction            ... done
Dispersion correction           -0.016212260
FINAL SINGLE POINT ENERGY     -1469.976133204597
Dispersion correction            ... done
FINAL SINGLE POINT ENERGY     -1469.976181553049
FINAL SINGLE POINT ENERGY     -1469.976193134959
FINAL SINGLE POINT ENERGY     -1469.976198034155
FINAL SINGLE POINT ENERGY     -1469.976192612280
FINAL SINGLE POINT ENERGY     -1469.976189238362
FINAL SINGLE POINT ENERGY     -1469.976176128473
FINAL SINGLE POINT ENERGY     -1469.976142302468
FINAL SINGLE POINT ENERGY     -1469.976136285550
FINAL SINGLE POINT ENERGY     -1469.976127416751
FINAL SINGLE POINT ENERGY     -1469.976116394531
FINAL SINGLE POINT ENERGY     -1469.976102996909
FINAL SINGLE POINT ENERGY     -1469.976055050736
FINAL SINGLE POINT ENERGY     -1469.976064685722
Dispersion correction           -0.016252849
FINAL SINGLE POINT ENERGY     -1469.976108411916
Dispersion correction            ... done
Dispersion correction           -0.016250641
FINAL SINGLE POINT ENERGY     -1469.976107353487
Dispersion correction            ... done
                    ***********************HURRAY********************
Dispersion correction           -0.016244716
FINAL SINGLE POINT ENERGY     -1469.976110768755

CARTESIAN COORDINATES (ANGSTROEM)
---------------------------------
  C      4.956760    0.919155   -0.023092
  C      4.323245   -0.302169   -0.678151
  C      2.806908   -0.212234   -0.825844
  C      2.100417   -0.218192    0.522196
  N      0.632874   -0.168600    0.386810
  C     -0.052573   -1.371369    0.319249
  S      0.752893   -2.820918    0.266059
  C     -1.518464   -1.319015    0.289215
  C     -2.279138   -2.468006    0.356825
  C     -3.675898   -2.421336    0.283874
  C     -4.315964   -1.224303    0.119705
  C     -3.577299   -0.023831    0.048621
  C     -4.211871    1.223510   -0.133912
  C     -3.472952    2.372259   -0.197119
  C     -2.081399    2.322304   -0.057250
  C     -1.421400    1.125478    0.129362
  C     -2.167698   -0.072454    0.159057
  C      0.031900    1.078995    0.322593
  S      0.919781    2.474437    0.459069
  H      6.043882    0.828075    0.003609
  H      4.617271    1.056008    1.005265
  H      4.713648    1.829375   -0.576637
  H      4.576908   -1.200154   -0.106024
  H      4.757274   -0.439801   -1.671147
  H      2.448292   -1.058269   -1.415159
  H      2.541932    0.696865   -1.372017
  H      2.341801   -1.121152    1.072994
  H      2.387780    0.638287    1.120810
  H     -1.784873   -3.422468    0.464291
  H     -4.240619   -3.341659    0.345653
  H     -5.395365   -1.178359    0.043991
  H     -5.290487    1.252460   -0.226860
  H     -3.956761    3.328236   -0.344897
  H     -1.510903    3.238946   -0.091440

 Multiplicity           Mult            ....    1
 Number of Electrons    NEL             ....  150
 Basis Dimension        Dim             .... 1092

ORBITAL ENERGIES
----------------

  NO   OCC          E(Eh)            E(eV)
   0   2.0000     -88.945681     -2420.3350
   1   2.0000     -88.945282     -2420.3242
   2   2.0000     -14.510610      -394.8538
   3   2.0000     -10.399144      -282.9751
   4   2.0000     -10.399054      -282.9726
   5   2.0000     -10.313778      -280.6522
   6   2.0000     -10.311801      -280.5984
   7   2.0000     -10.311625      -280.5936
   8   2.0000     -10.306238      -280.4470
   9   2.0000     -10.304316      -280.3947
  10   2.0000     -10.302372      -280.3418
  11   2.0000     -10.302266      -280.3389
  12   2.0000     -10.301320      -280.3132
  13   2.0000     -10.301235      -280.3108
  14   2.0000     -10.291132      -280.0359
  15   2.0000     -10.291122      -280.0357
  16   2.0000     -10.267573      -279.3949
  17   2.0000     -10.266145      -279.3560
  18   2.0000     -10.255182      -279.0577
  19   2.0000      -8.021671      -218.2808
  20   2.0000      -8.021278      -218.2701
  21   2.0000      -5.976104      -162.6181
  22   2.0000      -5.975725      -162.6077
  23   2.0000      -5.973053      -162.5350
  24   2.0000      -5.972640      -162.5238
  25   2.0000      -5.967441      -162.3823
  26   2.0000      -5.967046      -162.3716
  27   2.0000      -1.129438       -30.7336
  28   2.0000      -1.022346       -27.8194
  29   2.0000      -0.978042       -26.6139
  30   2.0000      -0.938936       -25.5498
  31   2.0000      -0.932413       -25.3722
  32   2.0000      -0.908367       -24.7179
  33   2.0000      -0.880818       -23.9683
  34   2.0000      -0.852265       -23.1913
  35   2.0000      -0.844829       -22.9890
  36   2.0000      -0.838852       -22.8263
  37   2.0000      -0.777425       -21.1548
  38   2.0000      -0.764482       -20.8026
  39   2.0000      -0.736503       -20.0413
  40   2.0000      -0.729964       -19.8633
  41   2.0000      -0.725655       -19.7461
  42   2.0000      -0.681978       -18.5576
  43   2.0000      -0.665720       -18.1152
  44   2.0000      -0.631887       -17.1945
  45   2.0000      -0.626085       -17.0366
  46   2.0000      -0.611220       -16.6322
  47   2.0000      -0.579252       -15.7622
  48   2.0000      -0.575300       -15.6547
  49   2.0000      -0.570346       -15.5199
  50   2.0000      -0.555161       -15.1067
  51   2.0000      -0.548639       -14.9292
  52   2.0000      -0.533593       -14.5198
  53   2.0000      -0.528446       -14.3797
  54   2.0000      -0.515688       -14.0326
  55   2.0000      -0.505066       -13.7435
  56   2.0000      -0.499666       -13.5966
  57   2.0000      -0.496561       -13.5121
  58   2.0000      -0.486517       -13.2388
  59   2.0000      -0.476990       -12.9796
  60   2.0000      -0.472958       -12.8698
  61   2.0000      -0.468760       -12.7556
  62   2.0000      -0.455408       -12.3923
  63   2.0000      -0.438840       -11.9414
  64   2.0000      -0.433909       -11.8073
  65   2.0000      -0.424408       -11.5487
  66   2.0000      -0.421343       -11.4653
  67   2.0000      -0.416508       -11.3337
  68   2.0000      -0.400913       -10.9094
  69   2.0000      -0.385035       -10.4773
  70   2.0000      -0.347153        -9.4465
  71   2.0000      -0.328789        -8.9468
  72   2.0000      -0.323025        -8.7900
  73   2.0000      -0.309341        -8.4176
  74   2.0000      -0.302748        -8.2382
  75   0.0000      -0.054949        -1.4952
  76   0.0000       0.019307         0.5254
  77   0.0000       0.041753         1.1362
  78   0.0000       0.047229         1.2852
  79   0.0000       0.047727         1.2987

MULLIKEN ATOMIC CHARGES
-----------------------
   0 C :   -0.721743
   1 C :   -0.202975
   2 C :   -0.226104
   3 C :   -0.894169
   4 N :    0.149462
   5 C :   -0.170306
   6 S :   -0.546231
   7 C :    1.861882
   8 C :   -0.943751
   9 C :   -0.498949
  10 C :   -0.520749
  11 C :    0.675750
  12 C :   -0.486379
  13 C :   -0.556289
  14 C :   -0.924630
  15 C :    1.773260
  16 C :   -0.162137
  17 C :   -0.119883
  18 S :   -0.539835
  19 H :    0.191272
  20 H :    0.209502
  21 H :    0.189738
  22 H :    0.180267
  23 H :    0.195478
  24 H :    0.235718
  25 H :    0.217253
  26 H :    0.255812
  27 H :    0.286092
  28 H :    0.096983
  29 H :    0.265836
  30 H :    0.177123
  31 H :    0.174459
  32 H :    0.272774
  33 H :    0.105468
Sum of atomic charges:    0.0000000

LOEWDIN ATOMIC CHARGES
----------------------
   0 C :   -0.142394
   1 C :   -0.431978
   2 C :   -0.345581
   3 C :   -0.400208
   4 N :   -0.004136
   5 C :   -0.898455
   6 S :    0.897320
   7 C :   -0.286695
   8 C :   -0.049215
   9 C :   -0.056664
  10 C :   -0.003011
  11 C :   -0.285776
  12 C :   -0.002815
  13 C :   -0.056503
  14 C :   -0.049714
  15 C :   -0.286754
  16 C :   -0.174376
  17 C :   -0.897033
  18 S :    0.896268
  19 H :    0.097175
  20 H :    0.116872
  21 H :    0.114506
  22 H :    0.169235
  23 H :    0.157385
  24 H :    0.181551
  25 H :    0.190635
  26 H :    0.200521
  27 H :    0.200094
  28 H :    0.199331
  29 H :    0.177311
  30 H :    0.198215
  31 H :    0.198196
  32 H :    0.177298
  33 H :    0.199396

  Mayer bond orders larger than 0.100000
B(  0-C ,  1-C ) :   0.7396 B(  0-C ,  2-C ) :   0.1228 B(  0-C , 19-H ) :   0.9814
B(  0-C , 20-H ) :   0.9464 B(  0-C , 21-H ) :   0.9702 B(  1-C ,  2-C ) :   0.8230
B(  1-C , 22-H ) :   0.9948 B(  1-C , 23-H ) :   0.9964 B(  2-C ,  3-C ) :   0.6681
B(  2-C , 24-H ) :   0.9688 B(  2-C , 25-H ) :   0.9694 B(  3-C ,  4-N ) :   0.6228
B(  3-C , 26-H ) :   1.0226 B(  3-C , 27-H ) :   0.9723 B(  4-N ,  5-C ) :   1.1340
B(  4-N ,  7-C ) :  -0.1936 B(  4-N , 15-C ) :  -0.1846 B(  4-N , 16-C ) :   0.1190
B(  4-N , 17-C ) :   1.0834 B(  5-C ,  6-S ) :   1.0322 B(  5-C ,  7-C ) :  -0.1114
B(  5-C , 10-C ) :   0.1431 B(  5-C , 11-C ) :  -0.1723 B(  5-C , 15-C ) :  -0.3992
B(  5-C , 16-C ) :   0.9206 B(  5-C , 17-C ) :   0.2260 B(  6-S ,  7-C ) :  -0.2321
B(  6-S ,  8-C ) :   0.1879 B(  6-S ,  9-C ) :   0.1071 B(  7-C ,  8-C ) :   0.3142
B(  7-C ,  9-C ) :  -0.1114 B(  7-C , 10-C ) :  -0.1606 B(  7-C , 13-C ) :   0.1632
B(  7-C , 14-C ) :  -0.1637 B(  7-C , 16-C ) :   0.2714 B(  7-C , 17-C ) :  -0.4493
B(  7-C , 28-H ) :  -0.2319 B(  8-C ,  9-C ) :   1.0677 B(  8-C , 10-C ) :   0.1582
B(  8-C , 16-C ) :  -0.1731 B(  8-C , 28-H ) :   1.2149 B(  9-C , 10-C ) :   1.1538
B(  9-C , 12-C ) :  -0.1735 B(  9-C , 15-C ) :   0.1945 B(  9-C , 29-H ) :   0.9204
B( 10-C , 11-C ) :   0.4169 B( 10-C , 12-C ) :  -0.3009 B( 10-C , 13-C ) :  -0.1877
B( 10-C , 14-C ) :   0.1098 B( 10-C , 16-C ) :   0.3329 B( 10-C , 30-H ) :   1.0469
B( 11-C , 12-C ) :   0.4715 B( 11-C , 17-C ) :  -0.2235 B( 12-C , 13-C ) :   1.1421
B( 12-C , 14-C ) :   0.1306 B( 12-C , 15-C ) :  -0.1385 B( 12-C , 16-C ) :   0.3264
B( 12-C , 17-C ) :   0.1257 B( 12-C , 31-H ) :   1.0434 B( 13-C , 14-C ) :   1.0532
B( 13-C , 15-C ) :  -0.1187 B( 13-C , 18-S ) :   0.1065 B( 13-C , 32-H ) :   0.9081
B( 14-C , 15-C ) :   0.2906 B( 14-C , 18-S ) :   0.1670 B( 14-C , 33-H ) :   1.2134
B( 15-C , 16-C ) :   0.3065 B( 15-C , 18-S ) :  -0.1348 B( 15-C , 33-H ) :  -0.2457
B( 16-C , 17-C ) :   0.9614 B( 17-C , 18-S ) :   1.0470

-----------------------------------------------------------------------------
         ABSORPTION SPECTRUM VIA TRANSITION ELECTRIC DIPOLE MOMENTS
-----------------------------------------------------------------------------
State   Energy    Wavelength  fosc         T2        TX        TY        TZ
        (cm-1)      (nm)                 (au**2)    (au)      (au)      (au)
-----------------------------------------------------------------------------
   1   20115.6    497.1   0.000613006   0.01003  -0.08442  -0.02052   0.04984
   2   22568.6    443.1   0.010379407   0.15141  -0.35931  -0.14640  -0.02954
   3   26575.3    376.3   0.591995026   7.33357   2.69888  -0.11776   0.18906
   4   30605.4    326.7   0.213009978   2.29128  -0.05280  -1.50531  -0.15012
   5   32827.8    304.6   0.316452487   3.17353  -0.06953  -1.78000   0.01702
   6   37158.5    269.1   0.017636525   0.15625   0.00940   0.38837   0.07303
   7   41220.0    242.6   0.016230390   0.12963  -0.15574   0.32361  -0.02543
   8   42052.2    237.8   0.120005533   0.93948  -0.09305  -0.96219   0.07080
   9   43366.6    230.6   0.016291356   0.12367  -0.26000   0.23678  -0.00343
  10   44330.5    225.6   0.038649113   0.28702  -0.52444  -0.02718  -0.10604

Dispersion correction           -0.016244716
FINAL SINGLE POINT ENERGY     -1469.884457289019

DIPOLE MOMENT
-------------
                                X             Y             Z
Electronic contribution:    -18.91885      -1.94096       3.10446
Nuclear contribution   :     16.35897       2.00277      -3.35478
                        -----------------------------------------
Total Dipole Moment    :     -2.55988       0.06180      -0.25033
                        -----------------------------------------
Magnitude (a.u.)       :      2.57284
Magnitude (Debye)      :      6.53963

Rotational constants in cm-1:     0.017873     0.008049     0.005702
Rotational constants in MHz :   535.816631   241.294547   170.956058

                             ****ORCA TERMINATED NORMALLY****
TOTAL RUN TIME: 0 days 11 hours 16 minutes 45 seconds 188 msec
