                         Program Version 5.0.2 -  RELEASE  -
|  1> ! x3lyp aug-cc-PVTZ RIJCOSX Opt
|  2> %maxcore 4000
|  3> %basis
|  4>  AuxJ "aug-cc-PVTZ/JK"
|  5>  AuxC "aug-cc-PVTZ/C"
|  6>  newGTO H "cc-PVTZ" end
|  7>  newAuxJGTO H "cc-PVTZ/JK" end
|  8>  newAuxCGTO H "cc-PVTZ/C" end
|  9> end
| 10> %cpcm
| 11>  SMD true
| 12>  SMDsolvent "dimethylsulfoxide"
| 13> end
| 14> %pal nprocs 4 end
| 15> * xyz 0 1
| 16> C          4.91900        0.91760       -0.09170
| 17> C          4.29310       -0.35910       -0.64060
| 18> C          2.77480       -0.26960       -0.77590
| 19> C          2.07810       -0.17250        0.58120
| 20> N          0.63210       -0.13660        0.42820
| 21> C         -0.04710       -1.32470        0.39580
| 22> S          0.76560       -2.76450        0.48790
| 23> C         -1.49030       -1.30430        0.27150
| 24> C         -2.23420       -2.47290        0.26980
| 25> C         -3.62250       -2.43400        0.15270
| 26> C         -4.28050       -1.23630        0.03590
| 27> C         -3.56480       -0.02210        0.03240
| 28> C         -4.20150        1.22970       -0.08680
| 29> C         -3.46810        2.38860       -0.08850
| 30> C         -2.07940        2.35000        0.02460
| 31> C         -1.41180        1.14210        0.14420
| 32> C         -2.15300       -0.06140        0.15230
| 33> C          0.03070        1.08210        0.26260
| 34> S          0.93500        2.46720        0.18770
| 35> H          6.00350        0.85470       -0.13960
| 36> H          4.63750        1.08160        0.94510
| 37> H          4.59860        1.77830       -0.67420
| 38> H          4.54860       -1.20260        0.00410
| 39> H          4.70950       -0.56110       -1.62980
| 40> H          2.40790       -1.15970       -1.29250
| 41> H          2.51280        0.60560       -1.37480
| 42> H          2.33270       -1.03960        1.19370
| 43> H          2.37890        0.73960        1.09740
| 44> H         -1.72410       -3.41940        0.36240
| 45> H         -4.17640       -3.36050        0.15470
| 46> H         -5.35630       -1.20550       -0.05570
| 47> H         -5.27740        1.25880       -0.17690
| 48> H         -3.96170        3.34430       -0.17890
| 49> H         -1.50940        3.26630        0.02140
| 50> *
| 51>
| 52>
| 53> $new_job
| 54> ! x3lyp aug-cc-PVTZ RIJCOSX SP
| 55> %maxcore 4000
| 56> %basis
| 57>  AuxJ "aug-cc-PVTZ/JK"
| 58>  AuxC "aug-cc-PVTZ/C"
| 59>  newGTO H "cc-PVTZ" end
| 60>  newAuxJGTO H "cc-PVTZ/JK" end
| 61>  newAuxCGTO H "cc-PVTZ/C" end
| 62> end
| 63> %cpcm
| 64>  SMD true
| 65>  SMDsolvent "dimethylsulfoxide"
| 66> end
| 67> %pal nprocs 4 end
| 68> %tddft
| 69>  nroots 10
| 70>  maxdim 7
| 71> end
| 72> * xyzfile 0 1
| 73>
| 74>                          ****END OF INPUT****
 Total Charge           Charge          ....    0
 Multiplicity           Mult            ....    1
 Number of Electrons    NEL             ....  150
FINAL SINGLE POINT ENERGY     -1469.412621258348
FINAL SINGLE POINT ENERGY     -1469.415953501972
FINAL SINGLE POINT ENERGY     -1469.416247852794
FINAL SINGLE POINT ENERGY     -1469.416305787259
FINAL SINGLE POINT ENERGY     -1469.416327928111
FINAL SINGLE POINT ENERGY     -1469.416333553777
FINAL SINGLE POINT ENERGY     -1469.416333766762
                    ***********************HURRAY********************
FINAL SINGLE POINT ENERGY     -1469.416332582231

CARTESIAN COORDINATES (ANGSTROEM)
---------------------------------
  C      5.052445    0.806257   -0.031171
  C      4.332526   -0.386077   -0.657875
  C      2.820207   -0.208590   -0.819744
  C      2.097782   -0.094324    0.521060
  N      0.620328   -0.080276    0.376688
  C     -0.043406   -1.302840    0.389625
  S      0.797420   -2.745906    0.529905
  C     -1.501832   -1.287102    0.272229
  C     -2.240698   -2.463203    0.279391
  C     -3.633868   -2.451670    0.175011
  C     -4.309913   -1.261404    0.060853
  C     -3.604919   -0.039338    0.046265
  C     -4.275779    1.196378   -0.069045
  C     -3.566874    2.373014   -0.081263
  C     -2.173236    2.356566    0.015697
  C     -1.467255    1.165993    0.131421
  C     -2.182934   -0.053549    0.151524
  C     -0.007729    1.152559    0.232666
  S      0.876820    2.574495    0.173196
  H      6.130612    0.636690   -0.003768
  H      4.726682    0.989974    0.994204
  H      4.876415    1.719860   -0.604139
  H      4.526640   -1.283312   -0.062187
  H      4.757826   -0.578667   -1.645935
  H      2.418219   -1.065277   -1.362737
  H      2.614100    0.680312   -1.419562
  H      2.342817   -0.941161    1.151967
  H      2.367776    0.819586    1.034829
  H     -1.722576   -3.405151    0.368690
  H     -4.173953   -3.388142    0.184379
  H     -5.388907   -1.242903   -0.019854
  H     -5.355146    1.199603   -0.146491
  H     -4.081097    3.320071   -0.167638
  H     -1.628594    3.287632    0.001508

 Multiplicity           Mult            ....    1
 Number of Electrons    NEL             ....  150
 Basis Dimension        Dim             .... 1092

ORBITAL ENERGIES
----------------

  NO   OCC          E(Eh)            E(eV)
   0   2.0000     -88.921295     -2419.6714
   1   2.0000     -88.921224     -2419.6695
   2   2.0000     -14.428511      -392.6197
   3   2.0000     -10.304848      -280.4092
   4   2.0000     -10.304799      -280.4078
   5   2.0000     -10.229097      -278.3479
   6   2.0000     -10.227937      -278.3163
   7   2.0000     -10.227819      -278.3131
   8   2.0000     -10.222528      -278.1691
   9   2.0000     -10.219696      -278.0921
  10   2.0000     -10.216488      -278.0048
  11   2.0000     -10.216465      -278.0041
  12   2.0000     -10.215752      -277.9847
  13   2.0000     -10.215714      -277.9837
  14   2.0000     -10.207601      -277.7629
  15   2.0000     -10.207566      -277.7620
  16   2.0000     -10.182988      -277.0932
  17   2.0000     -10.181789      -277.0606
  18   2.0000     -10.171213      -276.7728
  19   2.0000      -7.927758      -215.7252
  20   2.0000      -7.927673      -215.7230
  21   2.0000      -5.885482      -160.1521
  22   2.0000      -5.885397      -160.1498
  23   2.0000      -5.882635      -160.0746
  24   2.0000      -5.882557      -160.0725
  25   2.0000      -5.877294      -159.9293
  26   2.0000      -5.877210      -159.9270
  27   2.0000      -1.009714       -27.4757
  28   2.0000      -0.904782       -24.6204
  29   2.0000      -0.860552       -23.4168
  30   2.0000      -0.823472       -22.4078
  31   2.0000      -0.815445       -22.1894
  32   2.0000      -0.793276       -21.5861
  33   2.0000      -0.767620       -20.8880
  34   2.0000      -0.738321       -20.0907
  35   2.0000      -0.732076       -19.9208
  36   2.0000      -0.725875       -19.7521
  37   2.0000      -0.667379       -18.1603
  38   2.0000      -0.657464       -17.8905
  39   2.0000      -0.629609       -17.1325
  40   2.0000      -0.622889       -16.9497
  41   2.0000      -0.619374       -16.8540
  42   2.0000      -0.575086       -15.6489
  43   2.0000      -0.560572       -15.2539
  44   2.0000      -0.529210       -14.4005
  45   2.0000      -0.524607       -14.2753
  46   2.0000      -0.510455       -13.8902
  47   2.0000      -0.478039       -13.0081
  48   2.0000      -0.475712       -12.9448
  49   2.0000      -0.465884       -12.6773
  50   2.0000      -0.457625       -12.4526
  51   2.0000      -0.449238       -12.2244
  52   2.0000      -0.438415       -11.9299
  53   2.0000      -0.427322       -11.6280
  54   2.0000      -0.417156       -11.3514
  55   2.0000      -0.407518       -11.0891
  56   2.0000      -0.405683       -11.0392
  57   2.0000      -0.401636       -10.9291
  58   2.0000      -0.393903       -10.7186
  59   2.0000      -0.381753       -10.3880
  60   2.0000      -0.379775       -10.3342
  61   2.0000      -0.369206       -10.0466
  62   2.0000      -0.361813        -9.8454
  63   2.0000      -0.350159        -9.5283
  64   2.0000      -0.345315        -9.3965
  65   2.0000      -0.333009        -9.0616
  66   2.0000      -0.329451        -8.9648
  67   2.0000      -0.326217        -8.8768
  68   2.0000      -0.309804        -8.4302
  69   2.0000      -0.297618        -8.0986
  70   2.0000      -0.267542        -7.2802
  71   2.0000      -0.243331        -6.6214
  72   2.0000      -0.234377        -6.3777
  73   2.0000      -0.227719        -6.1966
  74   2.0000      -0.219714        -5.9787
  75   0.0000      -0.113741        -3.0951
  76   0.0000      -0.052377        -1.4252
  77   0.0000      -0.026581        -0.7233
  78   0.0000      -0.023424        -0.6374
  79   0.0000      -0.002628        -0.0715

MULLIKEN ATOMIC CHARGES
-----------------------
   0 C :   -0.583512
   1 C :   -0.142123
   2 C :   -0.053361
   3 C :   -0.581250
   4 N :    0.203846
   5 C :   -0.186440
   6 S :   -0.583271
   7 C :    1.674354
   8 C :   -0.921789
   9 C :   -0.632139
  10 C :   -0.583764
  11 C :    0.774882
  12 C :   -0.574269
  13 C :   -0.644411
  14 C :   -0.893483
  15 C :    1.636873
  16 C :    0.702647
  17 C :   -0.288644
  18 S :   -0.604501
  19 H :    0.157882
  20 H :    0.157023
  21 H :    0.150269
  22 H :    0.119856
  23 H :    0.143291
  24 H :    0.147143
  25 H :    0.128015
  26 H :    0.178373
  27 H :    0.175923
  28 H :    0.081291
  29 H :    0.237798
  30 H :    0.142678
  31 H :    0.140582
  32 H :    0.238211
  33 H :    0.082021
Sum of atomic charges:    0.0000000

LOEWDIN ATOMIC CHARGES
----------------------
   0 C :   -0.140408
   1 C :   -0.430684
   2 C :   -0.339602
   3 C :   -0.389426
   4 N :    0.004954
   5 C :   -0.884162
   6 S :    0.872202
   7 C :   -0.282302
   8 C :   -0.049384
   9 C :   -0.057418
  10 C :   -0.002202
  11 C :   -0.280156
  12 C :   -0.002168
  13 C :   -0.057354
  14 C :   -0.049362
  15 C :   -0.282602
  16 C :   -0.162537
  17 C :   -0.883339
  18 S :    0.872625
  19 H :    0.097366
  20 H :    0.115181
  21 H :    0.112595
  22 H :    0.167579
  23 H :    0.156954
  24 H :    0.180108
  25 H :    0.184745
  26 H :    0.196930
  27 H :    0.195403
  28 H :    0.195160
  29 H :    0.176687
  30 H :    0.196378
  31 H :    0.196371
  32 H :    0.176667
  33 H :    0.195204

  Mayer bond orders larger than 0.100000
B(  0-C ,  1-C ) :   0.8292 B(  0-C , 19-H ) :   0.9859 B(  0-C , 20-H ) :   0.9672
B(  0-C , 21-H ) :   0.9716 B(  1-C ,  2-C ) :   0.8986 B(  1-C , 22-H ) :   0.9919
B(  1-C , 23-H ) :   1.0004 B(  2-C ,  3-C ) :   0.8221 B(  2-C , 24-H ) :   0.9767
B(  2-C , 25-H ) :   0.9771 B(  3-C ,  4-N ) :   0.6683 B(  3-C , 17-C ) :   0.1025
B(  3-C , 26-H ) :   1.0213 B(  3-C , 27-H ) :   1.0095 B(  4-N ,  5-C ) :   1.0837
B(  4-N ,  7-C ) :  -0.1158 B(  4-N , 15-C ) :  -0.1183 B(  4-N , 17-C ) :   1.0766
B(  5-C ,  6-S ) :   0.9941 B(  5-C , 10-C ) :   0.1055 B(  5-C , 11-C ) :  -0.1327
B(  5-C , 15-C ) :  -0.2176 B(  5-C , 16-C ) :   0.7052 B(  5-C , 17-C ) :   0.2146
B(  6-S ,  7-C ) :  -0.2431 B(  6-S ,  8-C ) :   0.2177 B(  6-S ,  9-C ) :   0.1790
B(  6-S , 16-C ) :  -0.1122 B(  7-C ,  8-C ) :   0.5205 B(  7-C , 10-C ) :  -0.1641
B(  7-C , 11-C ) :   0.2200 B(  7-C , 13-C ) :   0.1350 B(  7-C , 14-C ) :  -0.1159
B(  7-C , 15-C ) :   0.1690 B(  7-C , 16-C ) :   0.1508 B(  7-C , 17-C ) :  -0.2216
B(  7-C , 28-H ) :  -0.1960 B(  8-C ,  9-C ) :   1.1903 B(  8-C , 10-C ) :   0.2053
B(  8-C , 15-C ) :  -0.1027 B(  8-C , 16-C ) :  -0.3196 B(  8-C , 28-H ) :   1.1826
B(  9-C , 10-C ) :   1.1986 B(  9-C , 12-C ) :  -0.1813 B(  9-C , 15-C ) :   0.1417
B(  9-C , 16-C ) :  -0.1794 B(  9-C , 29-H ) :   0.9060 B( 10-C , 11-C ) :   0.5670
B( 10-C , 12-C ) :  -0.2884 B( 10-C , 13-C ) :  -0.1798 B( 10-C , 15-C ) :   0.1150
B( 10-C , 16-C ) :   0.1431 B( 10-C , 30-H ) :   1.0484 B( 11-C , 12-C ) :   0.5692
B( 11-C , 15-C ) :   0.1701 B( 11-C , 16-C ) :  -0.3040 B( 11-C , 17-C ) :  -0.1485
B( 12-C , 13-C ) :   1.1992 B( 12-C , 14-C ) :   0.1886 B( 12-C , 15-C ) :  -0.1606
B( 12-C , 16-C ) :   0.1499 B( 12-C , 17-C ) :   0.1038 B( 12-C , 31-H ) :   1.0525
B( 13-C , 14-C ) :   1.1636 B( 13-C , 16-C ) :  -0.1531 B( 13-C , 18-S ) :   0.1548
B( 13-C , 32-H ) :   0.9048 B( 14-C , 15-C ) :   0.5057 B( 14-C , 16-C ) :  -0.2659
B( 14-C , 18-S ) :   0.1981 B( 14-C , 33-H ) :   1.1784 B( 15-C , 16-C ) :   0.1376
B( 15-C , 18-S ) :  -0.1474 B( 15-C , 33-H ) :  -0.2065 B( 16-C , 17-C ) :   0.7486
B( 16-C , 18-S ) :  -0.1386 B( 17-C , 18-S ) :   1.0676

-----------------------------------------------------------------------------
         ABSORPTION SPECTRUM VIA TRANSITION ELECTRIC DIPOLE MOMENTS
-----------------------------------------------------------------------------
State   Energy    Wavelength  fosc         T2        TX        TY        TZ
        (cm-1)      (nm)                 (au**2)    (au)      (au)      (au)
-----------------------------------------------------------------------------
   1   15449.7    647.3   0.000403641   0.00860   0.08073  -0.00769  -0.04500
   2   18578.0    538.3   0.001878904   0.03330  -0.02122   0.18073  -0.01344
   3   23053.6    433.8   0.500659590   7.14958   2.66788  -0.02023   0.17778
   4   25592.6    390.7   0.113676340   1.46229  -0.01368  -1.20593   0.08846
   5   28686.1    348.6   0.165289062   1.89691   0.01489   1.37464  -0.08397
   6   29237.1    342.0   0.023510282   0.26473   0.02768   0.51283  -0.03102
   7   32227.4    310.3   0.000759089   0.00775  -0.00881  -0.08723  -0.00817
   8   32801.4    304.9   0.168668561   1.69285   0.02387   1.29786  -0.08854
   9   34335.7    291.2   0.000015789   0.00015  -0.00174  -0.01123  -0.00472
  10   36385.1    274.8   0.001808125   0.01636   0.12713  -0.01380  -0.00260

FINAL SINGLE POINT ENERGY     -1469.345938736735

DIPOLE MOMENT
-------------
                                X             Y             Z
Electronic contribution:    -19.26885      -1.28561       3.01220
Nuclear contribution   :     16.59666       1.28882      -3.25635
                        -----------------------------------------
Total Dipole Moment    :     -2.67219       0.00321      -0.24415
                        -----------------------------------------
Magnitude (a.u.)       :      2.68332
Magnitude (Debye)      :      6.82046

Rotational constants in cm-1:     0.017789     0.007946     0.005626
Rotational constants in MHz :   533.296516   238.203252   168.664039

                             ****ORCA TERMINATED NORMALLY****
TOTAL RUN TIME: 0 days 3 hours 4 minutes 48 seconds 41 msec
