                         Program Version 5.0.2 -  RELEASE  -
|  1> ! b3lyp aug-cc-PVTZ RIJCOSX Opt
|  2> %maxcore 4000
|  3> %basis
|  4>  AuxJ "aug-cc-PVTZ/JK"
|  5>  AuxC "aug-cc-PVTZ/C"
|  6>  newGTO H "cc-PVTZ" end
|  7>  newAuxJGTO H "cc-PVTZ/JK" end
|  8>  newAuxCGTO H "cc-PVTZ/C" end
|  9> end
| 10> %cpcm
| 11>  SMD true
| 12>  SMDsolvent "cyclohexane"
| 13> end
| 14> %pal nprocs 4 end
| 15> * xyz 0 1
| 16> C          4.01170        0.00820        0.34860
| 17> C          2.89560        0.69840        0.14290
| 18> C          1.53670        0.17630        0.10890
| 19> C          1.22560       -1.15920        0.32570
| 20> C         -0.08660       -1.60060        0.28110
| 21> C         -1.12440       -0.72160        0.01880
| 22> O         -2.44290       -1.05420       -0.04620
| 23> C         -2.80490       -2.39380        0.17280
| 24> C         -0.82610        0.64180       -0.20400
| 25> O         -1.90170        1.44160       -0.45490
| 26> C         -1.67710        2.80980       -0.67860
| 27> C          0.48660        1.06530       -0.15530
| 28> H          4.97400        0.49070        0.35540
| 29> H          4.01730       -1.05460        0.51790
| 30> H          2.96990        1.76700       -0.02210
| 31> H          2.00590       -1.87320        0.53430
| 32> H         -0.28990       -2.64540        0.45520
| 33> H         -3.88920       -2.42410        0.07670
| 34> H         -2.52200       -2.73030        1.17610
| 35> H         -2.35790       -3.06090       -0.57230
| 36> H         -2.66080        3.24430       -0.85090
| 37> H         -1.04920        2.97840       -1.56040
| 38> H         -1.21720        3.29190        0.19110
| 39> H          0.72640        2.10400       -0.32380
| 40> *
| 41>
| 42>
| 43> $new_job
| 44> ! b3lyp aug-cc-PVTZ RIJCOSX SP
| 45> %maxcore 4000
| 46> %basis
| 47>  AuxJ "aug-cc-PVTZ/JK"
| 48>  AuxC "aug-cc-PVTZ/C"
| 49>  newGTO H "cc-PVTZ" end
| 50>  newAuxJGTO H "cc-PVTZ/JK" end
| 51>  newAuxCGTO H "cc-PVTZ/C" end
| 52> end
| 53> %cpcm
| 54>  SMD true
| 55>  SMDsolvent "cyclohexane"
| 56> end
| 57> %pal nprocs 4 end
| 58> %tddft
| 59>  nroots 10
| 60>  maxdim 7
| 61> end
| 62> * xyzfile 0 1
| 63>
| 64>                          ****END OF INPUT****
 Total Charge           Charge          ....    0
 Multiplicity           Mult            ....    1
 Number of Electrons    NEL             ....   88
FINAL SINGLE POINT ENERGY      -538.577544899965
FINAL SINGLE POINT ENERGY      -538.578302372967
FINAL SINGLE POINT ENERGY      -538.578380131535
FINAL SINGLE POINT ENERGY      -538.578392175985
FINAL SINGLE POINT ENERGY      -538.578396133641
                    ***********************HURRAY********************
FINAL SINGLE POINT ENERGY      -538.578396144898

CARTESIAN COORDINATES (ANGSTROEM)
---------------------------------
  C      4.035643    0.018239    0.334722
  C      2.902168    0.697929    0.149921
  C      1.532072    0.171667    0.118345
  C      1.215749   -1.167078    0.336286
  C     -0.103936   -1.604950    0.289526
  C     -1.143622   -0.719736    0.024912
  O     -2.455877   -1.059605   -0.038052
  C     -2.812784   -2.420285    0.171931
  C     -0.842119    0.642332   -0.198122
  O     -1.904534    1.450874   -0.451987
  C     -1.662507    2.831965   -0.687076
  C      0.478053    1.063857   -0.147591
  H      4.989511    0.528489    0.335978
  H      4.061248   -1.053432    0.487080
  H      2.975783    1.771138   -0.000458
  H      1.993609   -1.887235    0.548656
  H     -0.317757   -2.648725    0.464061
  H     -3.894854   -2.462234    0.072258
  H     -2.530941   -2.758959    1.172388
  H     -2.357059   -3.073474   -0.576646
  H     -2.637711    3.277666   -0.868770
  H     -1.028978    2.983994   -1.564848
  H     -1.204459    3.312767    0.181372
  H      0.713102    2.104594   -0.316888

 Multiplicity           Mult            ....    1
 Number of Electrons    NEL             ....   88
 Basis Dimension        Dim             ....  720

ORBITAL ENERGIES
----------------

  NO   OCC          E(Eh)            E(eV)
   0   2.0000     -19.158627      -521.3327
   1   2.0000     -19.156981      -521.2880
   2   2.0000     -10.232494      -278.4403
   3   2.0000     -10.231687      -278.4183
   4   2.0000     -10.218647      -278.0635
   5   2.0000     -10.217902      -278.0432
   6   2.0000     -10.178286      -276.9652
   7   2.0000     -10.175112      -276.8789
   8   2.0000     -10.171959      -276.7931
   9   2.0000     -10.170722      -276.7594
  10   2.0000     -10.167671      -276.6764
  11   2.0000     -10.159831      -276.4630
  12   2.0000      -1.075320       -29.2609
  13   2.0000      -1.055281       -28.7157
  14   2.0000      -0.856054       -23.2944
  15   2.0000      -0.788787       -21.4640
  16   2.0000      -0.753030       -20.4910
  17   2.0000      -0.737854       -20.0780
  18   2.0000      -0.703471       -19.1424
  19   2.0000      -0.683236       -18.5918
  20   2.0000      -0.614481       -16.7209
  21   2.0000      -0.600494       -16.3403
  22   2.0000      -0.557203       -15.1623
  23   2.0000      -0.533074       -14.5057
  24   2.0000      -0.505091       -13.7442
  25   2.0000      -0.497546       -13.5389
  26   2.0000      -0.473826       -12.8935
  27   2.0000      -0.467439       -12.7197
  28   2.0000      -0.459078       -12.4922
  29   2.0000      -0.447200       -12.1689
  30   2.0000      -0.435118       -11.8402
  31   2.0000      -0.422689       -11.5020
  32   2.0000      -0.407347       -11.0845
  33   2.0000      -0.389366       -10.5952
  34   2.0000      -0.387609       -10.5474
  35   2.0000      -0.369339       -10.0502
  36   2.0000      -0.350989        -9.5509
  37   2.0000      -0.340091        -9.2544
  38   2.0000      -0.330603        -8.9962
  39   2.0000      -0.326003        -8.8710
  40   2.0000      -0.325460        -8.8562
  41   2.0000      -0.277206        -7.5432
  42   2.0000      -0.238133        -6.4799
  43   2.0000      -0.200542        -5.4570
  44   0.0000      -0.033855        -0.9213
  45   0.0000      -0.002611        -0.0710
  46   0.0000       0.001811         0.0493
  47   0.0000       0.004297         0.1169
  48   0.0000       0.010379         0.2824

MULLIKEN ATOMIC CHARGES
-----------------------
   0 C :   -0.744003
   1 C :   -0.108938
   2 C :    1.785167
   3 C :   -0.583900
   4 C :   -0.681004
   5 C :    0.717978
   6 O :   -0.382753
   7 C :   -0.555028
   8 C :    0.761781
   9 O :   -0.382883
  10 C :   -0.569196
  11 C :   -0.968021
  12 H :    0.163846
  13 H :    0.153831
  14 H :    0.093054
  15 H :    0.036178
  16 H :    0.160881
  17 H :    0.138140
  18 H :    0.185964
  19 H :    0.185170
  20 H :    0.140777
  21 H :    0.186154
  22 H :    0.187258
  23 H :    0.079547
Sum of atomic charges:   -0.0000000

LOEWDIN ATOMIC CHARGES
----------------------
   0 C :    0.037137
   1 C :   -0.255871
   2 C :   -0.449892
   3 C :   -0.075049
   4 C :   -0.065428
   5 C :   -0.565639
   6 O :    0.377253
   7 C :   -0.202021
   8 C :   -0.551835
   9 O :    0.377361
  10 C :   -0.202836
  11 C :   -0.020756
  12 H :    0.090768
  13 H :    0.112216
  14 H :    0.182175
  15 H :    0.187385
  16 H :    0.187853
  17 H :    0.096082
  18 H :    0.109894
  19 H :    0.110095
  20 H :    0.096025
  21 H :    0.110126
  22 H :    0.109937
  23 H :    0.205019

  Mayer bond orders larger than 0.100000
B(  0-C ,  1-C ) :   1.2933 B(  0-C ,  2-C ) :  -0.1401 B(  0-C ,  3-C ) :   0.2264
B(  0-C , 12-H ) :   0.9901 B(  0-C , 13-H ) :   1.0103 B(  1-C ,  2-C ) :   0.4317
B(  1-C ,  3-C ) :   0.1520 B(  1-C , 11-C ) :   0.1515 B(  1-C , 14-H ) :   1.1017
B(  2-C ,  3-C ) :   0.5021 B(  2-C , 11-C ) :   0.1842 B(  2-C , 15-H ) :  -0.1682
B(  2-C , 23-H ) :  -0.1751 B(  3-C ,  4-C ) :   0.7238 B(  3-C , 11-C ) :   0.1410
B(  3-C , 15-H ) :   1.2003 B(  4-C ,  5-C ) :   1.3590 B(  4-C ,  8-C ) :   0.1023
B(  4-C , 16-H ) :   1.0118 B(  5-C ,  6-O ) :   0.2608 B(  5-C ,  8-C ) :   0.7916
B(  5-C ,  9-O ) :   0.2706 B(  5-C , 11-C ) :  -0.1192 B(  6-O ,  7-C ) :   0.9237
B(  6-O ,  8-C ) :   0.2839 B(  7-C , 17-H ) :   1.0218 B(  7-C , 18-H ) :   0.9572
B(  7-C , 19-H ) :   0.9577 B(  8-C ,  9-O ) :   0.2761 B(  8-C , 11-C ) :   1.0911
B(  9-O , 10-C ) :   0.9108 B( 10-C , 20-H ) :   1.0194 B( 10-C , 21-H ) :   0.9584
B( 10-C , 22-H ) :   0.9570 B( 11-C , 23-H ) :   1.1995

-----------------------------------------------------------------------------
         ABSORPTION SPECTRUM VIA TRANSITION ELECTRIC DIPOLE MOMENTS
-----------------------------------------------------------------------------
State   Energy    Wavelength  fosc         T2        TX        TY        TZ
        (cm-1)      (nm)                 (au**2)    (au)      (au)      (au)
-----------------------------------------------------------------------------
   1   34596.7    289.0   0.435844157   4.14736  -1.84122  -0.87020   0.00287
   2   36890.9    271.1   0.023031621   0.20553  -0.38397  -0.24056   0.01501
   3   39015.7    256.3   0.010983547   0.09268   0.02232  -0.04892  -0.29965
   4   40209.8    248.7   0.000619698   0.00507  -0.00407   0.01205   0.07008
   5   41142.6    243.1   0.000229941   0.00184   0.00457  -0.00665   0.04213
   6   42854.3    233.3   0.000763224   0.00586   0.00011  -0.02181  -0.07340
   7   43800.8    228.3   0.756389062   5.68510   2.23927  -0.74520   0.33981
   8   44435.5    225.0   0.005798148   0.04296   0.14973  -0.08650  -0.11426
   9   45811.0    218.3   0.066884387   0.48065  -0.65631   0.19407  -0.11064
  10   45946.8    217.6   0.075859798   0.54354  -0.70339   0.19710  -0.09970

FINAL SINGLE POINT ENERGY      -538.420761854777

DIPOLE MOMENT
-------------
                                X             Y             Z
Electronic contribution:     -2.62429      -0.12462      -0.16103
Nuclear contribution   :      2.42144       0.05898       0.15015
                        -----------------------------------------
Total Dipole Moment    :     -0.20286      -0.06564      -0.01088
                        -----------------------------------------
Magnitude (a.u.)       :      0.21349
Magnitude (Debye)      :      0.54265

Rotational constants in cm-1:     0.044470     0.022315     0.014944
Rotational constants in MHz :  1333.169603   668.995185   448.022809

                             ****ORCA TERMINATED NORMALLY****
TOTAL RUN TIME: 0 days 0 hours 43 minutes 8 seconds 431 msec
