                         Program Version 5.0.2 -  RELEASE  -
|  1> ! m062x defgrid3 aug-cc-PVTZ RIJCOSX Opt
|  2> %maxcore 4000
|  3> %basis
|  4>  AuxJ "aug-cc-PVTZ/JK"
|  5>  AuxC "aug-cc-PVTZ/C"
|  6>  newGTO H "cc-PVTZ" end
|  7>  newAuxJGTO H "cc-PVTZ/JK" end
|  8>  newAuxCGTO H "cc-PVTZ/C" end
|  9> end
| 10> %cpcm
| 11>  SMD true
| 12>  SMDsolvent "cyclohexane"
| 13> end
| 14> %pal nprocs 4 end
| 15> * xyz 0 1
| 16> C          4.01170        0.00820        0.34860
| 17> C          2.89560        0.69840        0.14290
| 18> C          1.53670        0.17630        0.10890
| 19> C          1.22560       -1.15920        0.32570
| 20> C         -0.08660       -1.60060        0.28110
| 21> C         -1.12440       -0.72160        0.01880
| 22> O         -2.44290       -1.05420       -0.04620
| 23> C         -2.80490       -2.39380        0.17280
| 24> C         -0.82610        0.64180       -0.20400
| 25> O         -1.90170        1.44160       -0.45490
| 26> C         -1.67710        2.80980       -0.67860
| 27> C          0.48660        1.06530       -0.15530
| 28> H          4.97400        0.49070        0.35540
| 29> H          4.01730       -1.05460        0.51790
| 30> H          2.96990        1.76700       -0.02210
| 31> H          2.00590       -1.87320        0.53430
| 32> H         -0.28990       -2.64540        0.45520
| 33> H         -3.88920       -2.42410        0.07670
| 34> H         -2.52200       -2.73030        1.17610
| 35> H         -2.35790       -3.06090       -0.57230
| 36> H         -2.66080        3.24430       -0.85090
| 37> H         -1.04920        2.97840       -1.56040
| 38> H         -1.21720        3.29190        0.19110
| 39> H          0.72640        2.10400       -0.32380
| 40> *
| 41>
| 42>
| 43> $new_job
| 44> ! m062x defgrid3 aug-cc-PVTZ RIJCOSX SP
| 45> %maxcore 4000
| 46> %basis
| 47>  AuxJ "aug-cc-PVTZ/JK"
| 48>  AuxC "aug-cc-PVTZ/C"
| 49>  newGTO H "cc-PVTZ" end
| 50>  newAuxJGTO H "cc-PVTZ/JK" end
| 51>  newAuxCGTO H "cc-PVTZ/C" end
| 52> end
| 53> %cpcm
| 54>  SMD true
| 55>  SMDsolvent "cyclohexane"
| 56> end
| 57> %pal nprocs 4 end
| 58> %tddft
| 59>  nroots 10
| 60>  maxdim 7
| 61> end
| 62> * xyzfile 0 1
| 63>
| 64>                          ****END OF INPUT****
 Total Charge           Charge          ....    0
 Multiplicity           Mult            ....    1
 Number of Electrons    NEL             ....   88
FINAL SINGLE POINT ENERGY      -538.672906604986
FINAL SINGLE POINT ENERGY      -538.673637214051
FINAL SINGLE POINT ENERGY      -538.673694919567
FINAL SINGLE POINT ENERGY      -538.673704964538
                    ***********************HURRAY********************
FINAL SINGLE POINT ENERGY      -538.673706682449

CARTESIAN COORDINATES (ANGSTROEM)
---------------------------------
  C      4.006761    0.010770    0.340264
  C      2.889659    0.702409    0.141311
  C      1.516202    0.176539    0.110686
  C      1.207218   -1.156338    0.333303
  C     -0.111119   -1.598744    0.287383
  C     -1.145735   -0.715974    0.019261
  O     -2.452221   -1.053264   -0.046258
  C     -2.787477   -2.408076    0.171803
  C     -0.847743    0.643037   -0.205433
  O     -1.908222    1.443889   -0.456554
  C     -1.652044    2.815020   -0.676767
  C      0.467321    1.068228   -0.157351
  H      4.968285    0.505667    0.342311
  H      4.009633   -1.059372    0.504775
  H      2.969976    1.772974   -0.020911
  H      1.988902   -1.871830    0.547479
  H     -0.324099   -2.642326    0.464243
  H     -3.867834   -2.472288    0.076721
  H     -2.493378   -2.733251    1.172550
  H     -2.320595   -3.056690   -0.573190
  H     -2.618069    3.279362   -0.854465
  H     -1.014083    2.964669   -1.551085
  H     -1.185293    3.276688    0.196696
  H      0.703753    2.108703   -0.329772

 Multiplicity           Mult            ....    1
 Number of Electrons    NEL             ....   88
 Basis Dimension        Dim             ....  720

ORBITAL ENERGIES
----------------

  NO   OCC          E(Eh)            E(eV)
   0   2.0000     -19.655880      -534.8637
   1   2.0000     -19.654825      -534.8350
   2   2.0000     -10.601775      -288.4890
   3   2.0000     -10.600905      -288.4653
   4   2.0000     -10.584114      -288.0084
   5   2.0000     -10.583609      -287.9946
   6   2.0000     -10.546102      -286.9740
   7   2.0000     -10.542954      -286.8884
   8   2.0000     -10.540379      -286.8183
   9   2.0000     -10.539460      -286.7933
  10   2.0000     -10.536391      -286.7098
  11   2.0000     -10.528492      -286.4948
  12   2.0000      -1.206369       -32.8270
  13   2.0000      -1.184422       -32.2298
  14   2.0000      -0.965410       -26.2701
  15   2.0000      -0.892789       -24.2940
  16   2.0000      -0.853308       -23.2197
  17   2.0000      -0.837173       -22.7806
  18   2.0000      -0.798241       -21.7212
  19   2.0000      -0.777614       -21.1600
  20   2.0000      -0.702264       -19.1096
  21   2.0000      -0.684558       -18.6278
  22   2.0000      -0.639974       -17.4146
  23   2.0000      -0.613620       -16.6974
  24   2.0000      -0.584234       -15.8978
  25   2.0000      -0.571249       -15.5445
  26   2.0000      -0.559977       -15.2378
  27   2.0000      -0.541924       -14.7465
  28   2.0000      -0.540277       -14.7017
  29   2.0000      -0.519571       -14.1382
  30   2.0000      -0.508665       -13.8415
  31   2.0000      -0.492475       -13.4009
  32   2.0000      -0.473038       -12.8720
  33   2.0000      -0.460215       -12.5231
  34   2.0000      -0.450885       -12.2692
  35   2.0000      -0.434373       -11.8199
  36   2.0000      -0.418383       -11.3848
  37   2.0000      -0.410293       -11.1646
  38   2.0000      -0.396397       -10.7865
  39   2.0000      -0.394122       -10.7246
  40   2.0000      -0.392270       -10.6742
  41   2.0000      -0.341087        -9.2814
  42   2.0000      -0.294636        -8.0174
  43   2.0000      -0.252147        -6.8613
  44   0.0000      -0.004453        -0.1212
  45   0.0000       0.007070         0.1924
  46   0.0000       0.008153         0.2219
  47   0.0000       0.013048         0.3551
  48   0.0000       0.024590         0.6691

MULLIKEN ATOMIC CHARGES
-----------------------
   0 C :   -0.941934
   1 C :   -0.054974
   2 C :    2.170901
   3 C :   -0.698846
   4 C :   -0.686155
   5 C :    0.953987
   6 O :   -0.368711
   7 C :   -0.859257
   8 C :    0.878986
   9 O :   -0.350609
  10 C :   -0.866867
  11 C :   -0.904752
  12 H :    0.163091
  13 H :    0.155854
  14 H :    0.070624
  15 H :   -0.075759
  16 H :    0.119591
  17 H :    0.160831
  18 H :    0.237503
  19 H :    0.235796
  20 H :    0.164824
  21 H :    0.236934
  22 H :    0.236703
  23 H :    0.022239
Sum of atomic charges:    0.0000000

LOEWDIN ATOMIC CHARGES
----------------------
   0 C :    0.042286
   1 C :   -0.255640
   2 C :   -0.457853
   3 C :   -0.075629
   4 C :   -0.062739
   5 C :   -0.577031
   6 O :    0.376245
   7 C :   -0.207910
   8 C :   -0.562415
   9 O :    0.377055
  10 C :   -0.207836
  11 C :   -0.020561
  12 H :    0.092539
  13 H :    0.115736
  14 H :    0.183115
  15 H :    0.190222
  16 H :    0.190801
  17 H :    0.096934
  18 H :    0.114062
  19 H :    0.114144
  20 H :    0.096934
  21 H :    0.114154
  22 H :    0.114392
  23 H :    0.208995

  Mayer bond orders larger than 0.100000
B(  0-C ,  1-C ) :   0.9150 B(  0-C ,  3-C ) :   0.2568 B(  0-C , 12-H ) :   1.0328
B(  0-C , 13-H ) :   1.0702 B(  1-C ,  2-C ) :   0.1323 B(  1-C ,  8-C ) :  -0.1637
B(  1-C , 11-C ) :   0.2326 B(  1-C , 12-H ) :  -0.1099 B(  1-C , 13-H ) :  -0.1284
B(  1-C , 14-H ) :   1.1774 B(  2-C ,  4-C ) :  -0.1796 B(  2-C ,  8-C ) :   0.1413
B(  2-C , 11-C ) :   0.1729 B(  2-C , 14-H ) :  -0.1985 B(  2-C , 15-H ) :  -0.4075
B(  2-C , 23-H ) :  -0.2973 B(  3-C ,  4-C ) :   0.7133 B(  3-C ,  5-C ) :   0.1663
B(  3-C ,  8-C ) :  -0.2447 B(  3-C , 11-C ) :   0.2477 B(  3-C , 15-H ) :   1.4633
B(  3-C , 16-H ) :  -0.1597 B(  4-C ,  5-C ) :   1.1931 B(  4-C ,  6-O ) :  -0.2590
B(  4-C ,  8-C ) :   0.1570 B(  4-C , 16-H ) :   1.1847 B(  5-C ,  6-O ) :   0.3300
B(  5-C ,  8-C ) :   0.9211 B(  5-C ,  9-O ) :   0.1539 B(  5-C , 11-C ) :  -0.2571
B(  6-O ,  7-C ) :   0.9245 B(  6-O ,  8-C ) :   0.2202 B(  6-O ,  9-O ) :  -0.1089
B(  7-C , 17-H ) :   1.0111 B(  7-C , 18-H ) :   0.9417 B(  7-C , 19-H ) :   0.9440
B(  8-C ,  9-O ) :   0.3984 B(  8-C , 11-C ) :   1.1992 B(  8-C , 23-H ) :  -0.1474
B(  9-O , 10-C ) :   0.9045 B(  9-O , 11-C ) :  -0.2229 B( 10-C , 20-H ) :   1.0024
B( 10-C , 21-H ) :   0.9449 B( 10-C , 22-H ) :   0.9452 B( 11-C , 23-H ) :   1.4037

-----------------------------------------------------------------------------
         ABSORPTION SPECTRUM VIA TRANSITION ELECTRIC DIPOLE MOMENTS
-----------------------------------------------------------------------------
State   Energy    Wavelength  fosc         T2        TX        TY        TZ
        (cm-1)      (nm)                 (au**2)    (au)      (au)      (au)
-----------------------------------------------------------------------------
   1   38277.4    261.3   0.536231273   4.61196   1.97358   0.84661   0.01413
   2   39953.8    250.3   0.007755676   0.06391  -0.22065   0.11486  -0.04500
   3   42331.5    236.2   0.012756224   0.09921  -0.02666   0.05755   0.30852
   4   44575.0    224.3   0.000087041   0.00064   0.00119  -0.01431  -0.02089
   5   44693.8    223.7   0.001320349   0.00973   0.01408  -0.01441  -0.09654
   6   47248.0    211.6   0.000078156   0.00054  -0.01751  -0.00679  -0.01385
   7   47932.1    208.6   0.005935694   0.04077   0.10609   0.17072  -0.01913
   8   48587.8    205.8   1.025174248   6.94617  -2.38004   1.05087  -0.42102
   9   48887.3    204.6   0.006647753   0.04477  -0.14768   0.09608   0.11715
  10   49449.7    202.2   0.000380927   0.00254   0.01493   0.00211  -0.04805

FINAL SINGLE POINT ENERGY      -538.499302007286

DIPOLE MOMENT
-------------
                                X             Y             Z
Electronic contribution:     -2.58390      -0.08972      -0.21266
Nuclear contribution   :      2.51584       0.02138       0.22322
                        -----------------------------------------
Total Dipole Moment    :     -0.06806      -0.06834       0.01056
                        -----------------------------------------
Magnitude (a.u.)       :      0.09702
Magnitude (Debye)      :      0.24661

Rotational constants in cm-1:     0.044874     0.022566     0.015102
Rotational constants in MHz :  1345.276051   676.502954   452.741890

                             ****ORCA TERMINATED NORMALLY****
TOTAL RUN TIME: 0 days 1 hours 15 minutes 30 seconds 412 msec
