                         Program Version 5.0.2 -  RELEASE  -
|  1> ! pbe0 d3bj aug-cc-PVTZ RIJCOSX Opt
|  2> %maxcore 4000
|  3> %basis
|  4>  AuxJ "aug-cc-PVTZ/JK"
|  5>  AuxC "aug-cc-PVTZ/C"
|  6>  newGTO H "cc-PVTZ" end
|  7>  newAuxJGTO H "cc-PVTZ/JK" end
|  8>  newAuxCGTO H "cc-PVTZ/C" end
|  9> end
| 10> %cpcm
| 11>  SMD true
| 12>  SMDsolvent "cyclohexane"
| 13> end
| 14> %pal nprocs 4 end
| 15> * xyz 0 1
| 16> C          4.01170        0.00820        0.34860
| 17> C          2.89560        0.69840        0.14290
| 18> C          1.53670        0.17630        0.10890
| 19> C          1.22560       -1.15920        0.32570
| 20> C         -0.08660       -1.60060        0.28110
| 21> C         -1.12440       -0.72160        0.01880
| 22> O         -2.44290       -1.05420       -0.04620
| 23> C         -2.80490       -2.39380        0.17280
| 24> C         -0.82610        0.64180       -0.20400
| 25> O         -1.90170        1.44160       -0.45490
| 26> C         -1.67710        2.80980       -0.67860
| 27> C          0.48660        1.06530       -0.15530
| 28> H          4.97400        0.49070        0.35540
| 29> H          4.01730       -1.05460        0.51790
| 30> H          2.96990        1.76700       -0.02210
| 31> H          2.00590       -1.87320        0.53430
| 32> H         -0.28990       -2.64540        0.45520
| 33> H         -3.88920       -2.42410        0.07670
| 34> H         -2.52200       -2.73030        1.17610
| 35> H         -2.35790       -3.06090       -0.57230
| 36> H         -2.66080        3.24430       -0.85090
| 37> H         -1.04920        2.97840       -1.56040
| 38> H         -1.21720        3.29190        0.19110
| 39> H          0.72640        2.10400       -0.32380
| 40> *
| 41>
| 42>
| 43> $new_job
| 44> ! b2gp-plyp aug-cc-PVTZ RIJCOSX SP
| 45> %maxcore 4000
| 46> %basis
| 47>  AuxJ "aug-cc-PVTZ/JK"
| 48>  AuxC "aug-cc-PVTZ/C"
| 49>  newGTO H "cc-PVTZ" end
| 50>  newAuxJGTO H "cc-PVTZ/JK" end
| 51>  newAuxCGTO H "cc-PVTZ/C" end
| 52> end
| 53> %cpcm
| 54>  SMD true
| 55>  SMDsolvent "cyclohexane"
| 56> end
| 57> %pal nprocs 4 end
| 58> %tddft
| 59>  nroots 10
| 60>  maxdim 7
| 61> end
| 62> * xyzfile 0 1
| 63>
| 64>                          ****END OF INPUT****
 Total Charge           Charge          ....    0
 Multiplicity           Mult            ....    1
 Number of Electrons    NEL             ....   88
Dispersion correction           -0.021522491
FINAL SINGLE POINT ENERGY      -538.282005166227
Dispersion correction            ... done
Dispersion correction           -0.021579562
FINAL SINGLE POINT ENERGY      -538.282731441281
Dispersion correction            ... done
Dispersion correction           -0.021574433
FINAL SINGLE POINT ENERGY      -538.282771764656
Dispersion correction            ... done
FINAL SINGLE POINT ENERGY      -538.282780817402
Dispersion correction            ... done
Dispersion correction           -0.021570141
FINAL SINGLE POINT ENERGY      -538.282782337226
Dispersion correction            ... done
                    ***********************HURRAY********************
Dispersion correction           -0.021570458
FINAL SINGLE POINT ENERGY      -538.282782087731

CARTESIAN COORDINATES (ANGSTROEM)
---------------------------------
  C      4.007713    0.012800    0.325852
  C      2.880485    0.700236    0.150744
  C      1.515698    0.175814    0.119834
  C      1.203329   -1.158740    0.340677
  C     -0.112430   -1.596517    0.292155
  C     -1.148543   -0.714289    0.023523
  O     -2.451247   -1.052835   -0.041242
  C     -2.784612   -2.405636    0.169580
  C     -0.849346    0.643661   -0.200774
  O     -1.904613    1.444892   -0.455445
  C     -1.645545    2.810727   -0.682129
  C      0.466659    1.065432   -0.148920
  H      4.965387    0.518101    0.328801
  H      4.022367   -1.061865    0.467718
  H      2.956212    1.775621    0.008112
  H      1.983832   -1.876660    0.557653
  H     -0.328735   -2.640971    0.469172
  H     -3.866539   -2.470078    0.069351
  H     -2.497987   -2.739200    1.171992
  H     -2.316326   -3.055271   -0.576451
  H     -2.612141    3.275933   -0.866786
  H     -1.004363    2.958484   -1.556885
  H     -1.182415    3.282711    0.190312
  H      0.702958    2.107451   -0.319847

 Multiplicity           Mult            ....    1
 Number of Electrons    NEL             ....   88
 Basis Dimension        Dim             ....  720

ORBITAL ENERGIES
----------------

  NO   OCC          E(Eh)            E(eV)
   0   2.0000     -19.969394      -543.3948
   1   2.0000     -19.968391      -543.3675
   2   2.0000     -10.838482      -294.9301
   3   2.0000     -10.837475      -294.9027
   4   2.0000     -10.821101      -294.4571
   5   2.0000     -10.820639      -294.4446
   6   2.0000     -10.781929      -293.3912
   7   2.0000     -10.780289      -293.3466
   8   2.0000     -10.775806      -293.2246
   9   2.0000     -10.774942      -293.2011
  10   2.0000     -10.772257      -293.1280
  11   2.0000     -10.765147      -292.9345
  12   2.0000      -1.280365       -34.8405
  13   2.0000      -1.257565       -34.2201
  14   2.0000      -1.030508       -28.0416
  15   2.0000      -0.952114       -25.9083
  16   2.0000      -0.909095       -24.7377
  17   2.0000      -0.891590       -24.2614
  18   2.0000      -0.845197       -22.9990
  19   2.0000      -0.828055       -22.5325
  20   2.0000      -0.747979       -20.3536
  21   2.0000      -0.727163       -19.7871
  22   2.0000      -0.677329       -18.4311
  23   2.0000      -0.645436       -17.5632
  24   2.0000      -0.617656       -16.8073
  25   2.0000      -0.603896       -16.4328
  26   2.0000      -0.586299       -15.9540
  27   2.0000      -0.572126       -15.5683
  28   2.0000      -0.567493       -15.4423
  29   2.0000      -0.548396       -14.9226
  30   2.0000      -0.537311       -14.6210
  31   2.0000      -0.523648       -14.2492
  32   2.0000      -0.502203       -13.6656
  33   2.0000      -0.479820       -13.0566
  34   2.0000      -0.476943       -12.9783
  35   2.0000      -0.462035       -12.5726
  36   2.0000      -0.444134       -12.0855
  37   2.0000      -0.423452       -11.5227
  38   2.0000      -0.420017       -11.4293
  39   2.0000      -0.418596       -11.3906
  40   2.0000      -0.416751       -11.3404
  41   2.0000      -0.346618        -9.4320
  42   2.0000      -0.295011        -8.0277
  43   2.0000      -0.250183        -6.8078
  44   0.0000       0.029745         0.8094
  45   0.0000       0.030508         0.8302
  46   0.0000       0.030975         0.8429
  47   0.0000       0.034779         0.9464
  48   0.0000       0.047877         1.3028

MULLIKEN ATOMIC CHARGES
-----------------------
   0 C :   -0.885211
   1 C :   -0.170146
   2 C :    1.839073
   3 C :   -0.629251
   4 C :   -0.766787
   5 C :    0.750686
   6 O :   -0.409180
   7 C :   -0.681249
   8 C :    0.820880
   9 O :   -0.418942
  10 C :   -0.704134
  11 C :   -0.928480
  12 H :    0.203732
  13 H :    0.199273
  14 H :    0.138636
  15 H :    0.069876
  16 H :    0.202193
  17 H :    0.174563
  18 H :    0.223442
  19 H :    0.220930
  20 H :    0.178987
  21 H :    0.220869
  22 H :    0.225305
  23 H :    0.124936
Sum of atomic charges:   -0.0000000

LOEWDIN ATOMIC CHARGES
----------------------
   0 C :    0.042629
   1 C :   -0.258006
   2 C :   -0.456770
   3 C :   -0.072578
   4 C :   -0.062451
   5 C :   -0.567616
   6 O :    0.361894
   7 C :   -0.204923
   8 C :   -0.553789
   9 O :    0.362703
  10 C :   -0.204887
  11 C :   -0.016034
  12 H :    0.092469
  13 H :    0.114724
  14 H :    0.184626
  15 H :    0.190285
  16 H :    0.191152
  17 H :    0.097198
  18 H :    0.113177
  19 H :    0.113485
  20 H :    0.097156
  21 H :    0.113477
  22 H :    0.113513
  23 H :    0.208565

  Mayer bond orders larger than 0.100000
B(  0-C ,  1-C ) :   1.2777 B(  0-C ,  2-C ) :  -0.2047 B(  0-C ,  3-C ) :   0.2867
B(  0-C , 11-C ) :  -0.1106 B(  0-C , 12-H ) :   1.0024 B(  0-C , 13-H ) :   1.0130
B(  1-C ,  2-C ) :   0.4317 B(  1-C ,  3-C ) :   0.1025 B(  1-C , 11-C ) :   0.1155
B(  1-C , 14-H ) :   1.1161 B(  2-C ,  3-C ) :   0.4636 B(  2-C ,  4-C ) :  -0.1280
B(  2-C , 11-C ) :   0.1906 B(  2-C , 14-H ) :  -0.1011 B(  2-C , 15-H ) :  -0.1733
B(  2-C , 23-H ) :  -0.1811 B(  3-C ,  4-C ) :   0.7523 B(  3-C ,  5-C ) :   0.1036
B(  3-C , 11-C ) :   0.1566 B(  3-C , 15-H ) :   1.2305 B(  4-C ,  5-C ) :   1.3400
B(  4-C ,  6-O ) :  -0.1020 B(  4-C ,  8-C ) :   0.1100 B(  4-C , 16-H ) :   1.0264
B(  5-C ,  6-O ) :   0.3510 B(  5-C ,  8-C ) :   0.8419 B(  5-C ,  9-O ) :   0.2241
B(  5-C , 11-C ) :  -0.1349 B(  6-O ,  7-C ) :   0.9422 B(  6-O ,  8-C ) :   0.2004
B(  7-C , 17-H ) :   1.0222 B(  7-C , 18-H ) :   0.9539 B(  7-C , 19-H ) :   0.9567
B(  8-C ,  9-O ) :   0.3714 B(  8-C , 11-C ) :   1.0979 B(  9-O , 10-C ) :   0.9303
B(  9-O , 11-C ) :  -0.1357 B( 10-C , 20-H ) :   1.0184 B( 10-C , 21-H ) :   0.9593
B( 10-C , 22-H ) :   0.9542 B( 11-C , 23-H ) :   1.2073

MP2 TOTAL ENERGY:     -538.352789588 Eh

-----------------------------------------------------------------------------
         ABSORPTION SPECTRUM VIA TRANSITION ELECTRIC DIPOLE MOMENTS
-----------------------------------------------------------------------------
State   Energy    Wavelength  fosc         T2        TX        TY        TZ
        (cm-1)      (nm)                 (au**2)    (au)      (au)      (au)
-----------------------------------------------------------------------------
   1   37089.3    269.6   0.509215371   4.51989  -2.00576  -0.70419  -0.03065
   2   37934.5    263.6   0.018723101   0.16249  -0.39836   0.04028  -0.04667
   3   41803.0    239.2   0.014950968   0.11774  -0.02448   0.05853   0.33722
   4   44204.3    226.2   0.000670632   0.00499   0.01101  -0.00020  -0.06981
   5   43918.1    227.7   0.001499688   0.01124  -0.01429   0.02840   0.10115
   6   46365.7    215.7   0.000127962   0.00091   0.00752   0.01669   0.02395
   7   47945.1    208.6   0.013795944   0.09473   0.21421   0.22063  -0.01275
   8   48169.2    207.6   0.006732372   0.04601   0.07123   0.00779   0.20218
   9   46463.4    215.2   1.017913183   7.21232   2.37645  -1.17341   0.43350
  10   49107.3    203.6   0.012995795   0.08712  -0.26015   0.11530   0.07845

Dispersion correction           -0.014120637
FINAL SINGLE POINT ENERGY      -537.322162815325

DIPOLE MOMENT
-------------
                                X             Y             Z
Electronic contribution:     -2.54031      -0.10287      -0.15588
Nuclear contribution   :      2.52321       0.02431       0.16705
                        -----------------------------------------
Total Dipole Moment    :     -0.01710      -0.07856       0.01117
                        -----------------------------------------
Magnitude (a.u.)       :      0.08117
Magnitude (Debye)      :      0.20632

Rotational constants in cm-1:     0.044933     0.022607     0.015128
Rotational constants in MHz :  1347.043990   677.726645   453.522287

                             ****ORCA TERMINATED NORMALLY****
TOTAL RUN TIME: 0 days 1 hours 6 minutes 55 seconds 746 msec
