                         Program Version 5.0.2 -  RELEASE  -
|  1> ! pbe0 d3bj aug-cc-PVTZ RIJCOSX Opt
|  2> %maxcore 4000
|  3> %basis
|  4>  AuxJ "aug-cc-PVTZ/JK"
|  5>  AuxC "aug-cc-PVTZ/C"
|  6>  newGTO H "cc-PVTZ" end
|  7>  newAuxJGTO H "cc-PVTZ/JK" end
|  8>  newAuxCGTO H "cc-PVTZ/C" end
|  9> end
| 10> %cpcm
| 11>  SMD true
| 12>  SMDsolvent "cyclohexane"
| 13> end
| 14> %pal nprocs 4 end
| 15> * xyz 0 1
| 16> C          4.01170        0.00820        0.34860
| 17> C          2.89560        0.69840        0.14290
| 18> C          1.53670        0.17630        0.10890
| 19> C          1.22560       -1.15920        0.32570
| 20> C         -0.08660       -1.60060        0.28110
| 21> C         -1.12440       -0.72160        0.01880
| 22> O         -2.44290       -1.05420       -0.04620
| 23> C         -2.80490       -2.39380        0.17280
| 24> C         -0.82610        0.64180       -0.20400
| 25> O         -1.90170        1.44160       -0.45490
| 26> C         -1.67710        2.80980       -0.67860
| 27> C          0.48660        1.06530       -0.15530
| 28> H          4.97400        0.49070        0.35540
| 29> H          4.01730       -1.05460        0.51790
| 30> H          2.96990        1.76700       -0.02210
| 31> H          2.00590       -1.87320        0.53430
| 32> H         -0.28990       -2.64540        0.45520
| 33> H         -3.88920       -2.42410        0.07670
| 34> H         -2.52200       -2.73030        1.17610
| 35> H         -2.35790       -3.06090       -0.57230
| 36> H         -2.66080        3.24430       -0.85090
| 37> H         -1.04920        2.97840       -1.56040
| 38> H         -1.21720        3.29190        0.19110
| 39> H          0.72640        2.10400       -0.32380
| 40> *
| 41>
| 42>
| 43> $new_job
| 44> ! b2plyp aug-cc-PVTZ RIJCOSX SP
| 45> %maxcore 4000
| 46> %basis
| 47>  AuxJ "aug-cc-PVTZ/JK"
| 48>  AuxC "aug-cc-PVTZ/C"
| 49>  newGTO H "cc-PVTZ" end
| 50>  newAuxJGTO H "cc-PVTZ/JK" end
| 51>  newAuxCGTO H "cc-PVTZ/C" end
| 52> end
| 53> %cpcm
| 54>  SMD true
| 55>  SMDsolvent "cyclohexane"
| 56> end
| 57> %pal nprocs 4 end
| 58> %tddft
| 59>  nroots 10
| 60>  maxdim 7
| 61> end
| 62> * xyzfile 0 1
| 63>
| 64>                          ****END OF INPUT****
 Total Charge           Charge          ....    0
 Multiplicity           Mult            ....    1
 Number of Electrons    NEL             ....   88
Dispersion correction           -0.021522491
FINAL SINGLE POINT ENERGY      -538.282005163705
Dispersion correction            ... done
Dispersion correction           -0.021579562
FINAL SINGLE POINT ENERGY      -538.282731432306
Dispersion correction            ... done
Dispersion correction           -0.021574433
FINAL SINGLE POINT ENERGY      -538.282771764227
Dispersion correction            ... done
FINAL SINGLE POINT ENERGY      -538.282780826324
Dispersion correction            ... done
Dispersion correction           -0.021570142
FINAL SINGLE POINT ENERGY      -538.282782350347
Dispersion correction            ... done
                    ***********************HURRAY********************
Dispersion correction           -0.021570459
FINAL SINGLE POINT ENERGY      -538.282782095563

CARTESIAN COORDINATES (ANGSTROEM)
---------------------------------
  C      4.007713    0.012800    0.325853
  C      2.880485    0.700236    0.150743
  C      1.515698    0.175815    0.119834
  C      1.203329   -1.158740    0.340679
  C     -0.112430   -1.596517    0.292157
  C     -1.148543   -0.714290    0.023522
  O     -2.451247   -1.052836   -0.041243
  C     -2.784611   -2.405636    0.169580
  C     -0.849346    0.643660   -0.200777
  O     -1.904613    1.444892   -0.455448
  C     -1.645545    2.810727   -0.682127
  C      0.466659    1.065431   -0.148923
  H      4.965387    0.518100    0.328800
  H      4.022366   -1.061865    0.467721
  H      2.956213    1.775621    0.008108
  H      1.983831   -1.876659    0.557657
  H     -0.328735   -2.640970    0.469176
  H     -3.866539   -2.470078    0.069351
  H     -2.497987   -2.739200    1.171991
  H     -2.316325   -3.055271   -0.576451
  H     -2.612141    3.275934   -0.866782
  H     -1.004363    2.958488   -1.556883
  H     -1.182415    3.282708    0.190315
  H      0.702959    2.107451   -0.319851

 Multiplicity           Mult            ....    1
 Number of Electrons    NEL             ....   88
 Basis Dimension        Dim             ....  720

ORBITAL ENERGIES
----------------

  NO   OCC          E(Eh)            E(eV)
   0   2.0000     -19.755329      -537.5698
   1   2.0000     -19.754221      -537.5397
   2   2.0000     -10.677640      -290.5534
   3   2.0000     -10.676702      -290.5278
   4   2.0000     -10.661492      -290.1139
   5   2.0000     -10.660981      -290.1001
   6   2.0000     -10.621632      -289.0293
   7   2.0000     -10.619914      -288.9826
   8   2.0000     -10.615687      -288.8675
   9   2.0000     -10.614694      -288.8405
  10   2.0000     -10.611964      -288.7662
  11   2.0000     -10.604920      -288.5746
  12   2.0000      -1.226523       -33.3754
  13   2.0000      -1.204401       -32.7734
  14   2.0000      -0.983605       -26.7653
  15   2.0000      -0.908064       -24.7097
  16   2.0000      -0.866858       -23.5884
  17   2.0000      -0.849972       -23.1289
  18   2.0000      -0.806678       -21.9508
  19   2.0000      -0.788688       -21.4613
  20   2.0000      -0.711687       -19.3660
  21   2.0000      -0.692296       -18.8383
  22   2.0000      -0.644478       -17.5371
  23   2.0000      -0.615029       -16.7358
  24   2.0000      -0.587249       -15.9799
  25   2.0000      -0.574871       -15.6430
  26   2.0000      -0.556011       -15.1298
  27   2.0000      -0.543471       -14.7886
  28   2.0000      -0.537982       -14.6392
  29   2.0000      -0.520582       -14.1658
  30   2.0000      -0.509254       -13.8575
  31   2.0000      -0.495715       -13.4891
  32   2.0000      -0.475575       -12.9411
  33   2.0000      -0.454075       -12.3560
  34   2.0000      -0.452615       -12.3163
  35   2.0000      -0.436274       -11.8716
  36   2.0000      -0.418431       -11.3861
  37   2.0000      -0.400267       -10.8918
  38   2.0000      -0.394723       -10.7410
  39   2.0000      -0.393248       -10.7008
  40   2.0000      -0.391205       -10.6452
  41   2.0000      -0.327291        -8.9060
  42   2.0000      -0.279082        -7.5942
  43   2.0000      -0.235828        -6.4172
  44   0.0000       0.015299         0.4163
  45   0.0000       0.023765         0.6467
  46   0.0000       0.024018         0.6536
  47   0.0000       0.029149         0.7932
  48   0.0000       0.042201         1.1483

MULLIKEN ATOMIC CHARGES
-----------------------
   0 C :   -0.847830
   1 C :   -0.157916
   2 C :    1.834912
   3 C :   -0.617264
   4 C :   -0.743185
   5 C :    0.739567
   6 O :   -0.401039
   7 C :   -0.651490
   8 C :    0.808457
   9 O :   -0.408281
  10 C :   -0.672126
  11 C :   -0.940809
  12 H :    0.193663
  13 H :    0.187034
  14 H :    0.126715
  15 H :    0.060228
  16 H :    0.191293
  17 H :    0.164334
  18 H :    0.213519
  19 H :    0.211462
  20 H :    0.168446
  21 H :    0.211602
  22 H :    0.215299
  23 H :    0.113411
Sum of atomic charges:   -0.0000000

LOEWDIN ATOMIC CHARGES
----------------------
   0 C :    0.041455
   1 C :   -0.257800
   2 C :   -0.456336
   3 C :   -0.073184
   4 C :   -0.063435
   5 C :   -0.568781
   6 O :    0.366965
   7 C :   -0.206668
   8 C :   -0.554905
   9 O :    0.367689
  10 C :   -0.206701
  11 C :   -0.017538
  12 H :    0.092208
  13 H :    0.114589
  14 H :    0.184408
  15 H :    0.190018
  16 H :    0.190889
  17 H :    0.097296
  18 H :    0.113317
  19 H :    0.113636
  20 H :    0.097251
  21 H :    0.113632
  22 H :    0.113651
  23 H :    0.208342

  Mayer bond orders larger than 0.100000
B(  0-C ,  1-C ) :   1.2856 B(  0-C ,  2-C ) :  -0.1891 B(  0-C ,  3-C ) :   0.2711
B(  0-C , 12-H ) :   0.9989 B(  0-C , 13-H ) :   1.0131 B(  1-C ,  2-C ) :   0.4303
B(  1-C ,  3-C ) :   0.1142 B(  1-C , 11-C ) :   0.1236 B(  1-C , 14-H ) :   1.1130
B(  2-C ,  3-C ) :   0.4709 B(  2-C ,  4-C ) :  -0.1165 B(  2-C , 11-C ) :   0.1704
B(  2-C , 15-H ) :  -0.1722 B(  2-C , 23-H ) :  -0.1817 B(  3-C ,  4-C ) :   0.7332
B(  3-C , 11-C ) :   0.1576 B(  3-C , 15-H ) :   1.2248 B(  4-C ,  5-C ) :   1.3546
B(  4-C ,  8-C ) :   0.1080 B(  4-C , 16-H ) :   1.0222 B(  5-C ,  6-O ) :   0.3215
B(  5-C ,  8-C ) :   0.8317 B(  5-C ,  9-O ) :   0.2393 B(  5-C , 11-C ) :  -0.1307
B(  6-O ,  7-C ) :   0.9383 B(  6-O ,  8-C ) :   0.2234 B(  7-C , 17-H ) :   1.0234
B(  7-C , 18-H ) :   0.9551 B(  7-C , 19-H ) :   0.9573 B(  8-C ,  9-O ) :   0.3396
B(  8-C , 11-C ) :   1.0959 B(  9-O , 10-C ) :   0.9255 B(  9-O , 11-C ) :  -0.1168
B( 10-C , 20-H ) :   1.0199 B( 10-C , 21-H ) :   0.9596 B( 10-C , 22-H ) :   0.9553
B( 11-C , 23-H ) :   1.2057

MP2 TOTAL ENERGY:     -538.454901142 Eh

-----------------------------------------------------------------------------
         ABSORPTION SPECTRUM VIA TRANSITION ELECTRIC DIPOLE MOMENTS
-----------------------------------------------------------------------------
State   Energy    Wavelength  fosc         T2        TX        TY        TZ
        (cm-1)      (nm)                 (au**2)    (au)      (au)      (au)
-----------------------------------------------------------------------------
   1   36023.4    277.6   0.507914415   4.64174   2.01755   0.75542   0.02371
   2   37166.7    269.1   0.009482997   0.08400   0.28260  -0.05106   0.03907
   3   40569.6    246.5   0.014156897   0.11488   0.02482  -0.05688  -0.33321
   4   42416.5    235.8   0.001617663   0.01256  -0.01454   0.01733   0.10974
   5   42814.3    233.6   0.000095066   0.00073  -0.00130   0.02001   0.01813
   6   44835.4    223.0   0.000203820   0.00150  -0.00872  -0.01547  -0.03437
   7   46497.4    215.1   0.029140866   0.20632  -0.23960   0.35654  -0.14764
   8   46679.3    214.2   0.008390787   0.05918  -0.08019   0.19029   0.12859
   9   45450.1    220.0   0.909727611   6.58949  -2.29804   1.06630  -0.41416
  10   47705.0    209.6   0.021822801   0.15060   0.35965  -0.14167  -0.03437

Dispersion correction           -0.019228586
FINAL SINGLE POINT ENERGY      -537.617372525519

DIPOLE MOMENT
-------------
                                X             Y             Z
Electronic contribution:     -2.58338      -0.09873      -0.16070
Nuclear contribution   :      2.52321       0.02432       0.16707
                        -----------------------------------------
Total Dipole Moment    :     -0.06017      -0.07441       0.00636
                        -----------------------------------------
Magnitude (a.u.)       :      0.09590
Magnitude (Debye)      :      0.24377

Rotational constants in cm-1:     0.044933     0.022607     0.015128
Rotational constants in MHz :  1347.043980   677.726691   453.522305

                             ****ORCA TERMINATED NORMALLY****
TOTAL RUN TIME: 0 days 1 hours 6 minutes 13 seconds 387 msec
