                         Program Version 5.0.2 -  RELEASE  -
|  1> ! pbe0 aug-cc-PVTZ RIJCOSX Opt
|  2> %maxcore 4000
|  3> %basis
|  4>  AuxJ "aug-cc-PVTZ/JK"
|  5>  AuxC "aug-cc-PVTZ/C"
|  6>  newGTO H "cc-PVTZ" end
|  7>  newAuxJGTO H "cc-PVTZ/JK" end
|  8>  newAuxCGTO H "cc-PVTZ/C" end
|  9> end
| 10> %cpcm
| 11>  SMD true
| 12>  SMDsolvent "cyclohexane"
| 13> end
| 14> %pal nprocs 4 end
| 15> * xyz 0 1
| 16> C          4.01170        0.00820        0.34860
| 17> C          2.89560        0.69840        0.14290
| 18> C          1.53670        0.17630        0.10890
| 19> C          1.22560       -1.15920        0.32570
| 20> C         -0.08660       -1.60060        0.28110
| 21> C         -1.12440       -0.72160        0.01880
| 22> O         -2.44290       -1.05420       -0.04620
| 23> C         -2.80490       -2.39380        0.17280
| 24> C         -0.82610        0.64180       -0.20400
| 25> O         -1.90170        1.44160       -0.45490
| 26> C         -1.67710        2.80980       -0.67860
| 27> C          0.48660        1.06530       -0.15530
| 28> H          4.97400        0.49070        0.35540
| 29> H          4.01730       -1.05460        0.51790
| 30> H          2.96990        1.76700       -0.02210
| 31> H          2.00590       -1.87320        0.53430
| 32> H         -0.28990       -2.64540        0.45520
| 33> H         -3.88920       -2.42410        0.07670
| 34> H         -2.52200       -2.73030        1.17610
| 35> H         -2.35790       -3.06090       -0.57230
| 36> H         -2.66080        3.24430       -0.85090
| 37> H         -1.04920        2.97840       -1.56040
| 38> H         -1.21720        3.29190        0.19110
| 39> H          0.72640        2.10400       -0.32380
| 40> *
| 41>
| 42>
| 43> $new_job
| 44> ! pbe0 aug-cc-PVTZ RIJCOSX SP
| 45> %maxcore 4000
| 46> %basis
| 47>  AuxJ "aug-cc-PVTZ/JK"
| 48>  AuxC "aug-cc-PVTZ/C"
| 49>  newGTO H "cc-PVTZ" end
| 50>  newAuxJGTO H "cc-PVTZ/JK" end
| 51>  newAuxCGTO H "cc-PVTZ/C" end
| 52> end
| 53> %cpcm
| 54>  SMD true
| 55>  SMDsolvent "cyclohexane"
| 56> end
| 57> %pal nprocs 4 end
| 58> %tddft
| 59>  nroots 10
| 60>  maxdim 7
| 61> end
| 62> * xyzfile 0 1
| 63>
| 64>                          ****END OF INPUT****
 Total Charge           Charge          ....    0
 Multiplicity           Mult            ....    1
 Number of Electrons    NEL             ....   88
FINAL SINGLE POINT ENERGY      -538.260482672794
FINAL SINGLE POINT ENERGY      -538.261168667053
FINAL SINGLE POINT ENERGY      -538.261211671442
FINAL SINGLE POINT ENERGY      -538.261220795093
FINAL SINGLE POINT ENERGY      -538.261222465942
                    ***********************HURRAY********************
FINAL SINGLE POINT ENERGY      -538.261222224178

CARTESIAN COORDINATES (ANGSTROEM)
---------------------------------
  C      4.012895    0.014163    0.327483
  C      2.884135    0.699212    0.150641
  C      1.518455    0.174490    0.119494
  C      1.204873   -1.160167    0.339891
  C     -0.111506   -1.597480    0.291558
  C     -1.148043   -0.715237    0.023540
  O     -2.451207   -1.053640   -0.040817
  C     -2.788722   -2.405889    0.169689
  C     -0.848094    0.643334   -0.200670
  O     -1.903492    1.445264   -0.455029
  C     -1.648506    2.812138   -0.682397
  C      0.468594    1.064203   -0.148955
  H      4.969549    0.521738    0.329997
  H      4.031082   -1.060289    0.471374
  H      2.959583    1.774591    0.006606
  H      1.984865   -1.879160    0.556379
  H     -0.327801   -2.642245    0.468321
  H     -3.871079   -2.466648    0.069720
  H     -2.503725   -2.741342    1.172001
  H     -2.323642   -3.057396   -0.576811
  H     -2.616977    3.274171   -0.866390
  H     -1.009165    2.962534   -1.558131
  H     -1.186749    3.286844    0.189373
  H      0.704477    2.106613   -0.319868

 Multiplicity           Mult            ....    1
 Number of Electrons    NEL             ....   88
 Basis Dimension        Dim             ....  720

ORBITAL ENERGIES
----------------

  NO   OCC          E(Eh)            E(eV)
   0   2.0000     -19.243942      -523.6543
   1   2.0000     -19.242349      -523.6109
   2   2.0000     -10.285790      -279.8906
   3   2.0000     -10.284921      -279.8669
   4   2.0000     -10.269588      -279.4497
   5   2.0000     -10.268852      -279.4297
   6   2.0000     -10.232400      -278.4378
   7   2.0000     -10.228857      -278.3413
   8   2.0000     -10.225801      -278.2582
   9   2.0000     -10.224680      -278.2277
  10   2.0000     -10.221793      -278.1491
  11   2.0000     -10.213574      -277.9255
  12   2.0000      -1.113921       -30.3113
  13   2.0000      -1.093290       -29.7499
  14   2.0000      -0.885892       -24.1064
  15   2.0000      -0.816271       -22.2119
  16   2.0000      -0.779148       -21.2017
  17   2.0000      -0.763172       -20.7670
  18   2.0000      -0.726924       -19.7806
  19   2.0000      -0.706305       -19.2195
  20   2.0000      -0.636040       -17.3075
  21   2.0000      -0.619845       -16.8668
  22   2.0000      -0.577213       -15.7068
  23   2.0000      -0.553172       -15.0526
  24   2.0000      -0.524842       -14.2817
  25   2.0000      -0.515362       -14.0237
  26   2.0000      -0.494195       -13.4477
  27   2.0000      -0.483957       -13.1691
  28   2.0000      -0.477226       -12.9860
  29   2.0000      -0.462385       -12.5821
  30   2.0000      -0.450803       -12.2670
  31   2.0000      -0.436949       -11.8900
  32   2.0000      -0.419774       -11.4226
  33   2.0000      -0.404344       -11.0028
  34   2.0000      -0.399395       -10.8681
  35   2.0000      -0.381781       -10.3888
  36   2.0000      -0.363992        -9.9047
  37   2.0000      -0.355506        -9.6738
  38   2.0000      -0.341998        -9.3062
  39   2.0000      -0.339801        -9.2465
  40   2.0000      -0.339587        -9.2406
  41   2.0000      -0.291110        -7.9215
  42   2.0000      -0.250491        -6.8162
  43   2.0000      -0.211093        -5.7441
  44   0.0000      -0.030282        -0.8240
  45   0.0000       0.001853         0.0504
  46   0.0000       0.008336         0.2268
  47   0.0000       0.010933         0.2975
  48   0.0000       0.016733         0.4553

MULLIKEN ATOMIC CHARGES
-----------------------
   0 C :   -0.682039
   1 C :   -0.165588
   2 C :    1.572197
   3 C :   -0.623848
   4 C :   -0.677675
   5 C :    0.646016
   6 O :   -0.353804
   7 C :   -0.580955
   8 C :    0.723670
   9 O :   -0.358739
  10 C :   -0.594979
  11 C :   -0.923767
  12 H :    0.177085
  13 H :    0.182190
  14 H :    0.135920
  15 H :    0.088560
  16 H :    0.207881
  17 H :    0.152093
  18 H :    0.195893
  19 H :    0.194910
  20 H :    0.153674
  21 H :    0.195939
  22 H :    0.197606
  23 H :    0.137759
Sum of atomic charges:    0.0000000

LOEWDIN ATOMIC CHARGES
----------------------
   0 C :    0.038377
   1 C :   -0.260523
   2 C :   -0.459557
   3 C :   -0.077040
   4 C :   -0.067229
   5 C :   -0.575753
   6 O :    0.381671
   7 C :   -0.211172
   8 C :   -0.561661
   9 O :    0.381863
  10 C :   -0.211665
  11 C :   -0.022711
  12 H :    0.092978
  13 H :    0.115461
  14 H :    0.185700
  15 H :    0.191499
  16 H :    0.192589
  17 H :    0.098902
  18 H :    0.114598
  19 H :    0.114918
  20 H :    0.098838
  21 H :    0.114870
  22 H :    0.114841
  23 H :    0.210207

  Mayer bond orders larger than 0.100000
B(  0-C ,  1-C ) :   1.4595 B(  0-C ,  2-C ) :  -0.1615 B(  0-C ,  3-C ) :   0.2328
B(  0-C , 12-H ) :   0.9826 B(  0-C , 13-H ) :   0.9759 B(  1-C ,  2-C ) :   0.5993
B(  1-C ,  3-C ) :   0.1095 B(  1-C , 14-H ) :   1.0597 B(  2-C ,  3-C ) :   0.6355
B(  2-C , 11-C ) :   0.3950 B(  2-C , 15-H ) :  -0.1318 B(  2-C , 23-H ) :  -0.1299
B(  3-C ,  4-C ) :   0.9182 B(  3-C , 11-C ) :   0.1376 B(  3-C , 15-H ) :   1.1301
B(  4-C ,  5-C ) :   1.3940 B(  4-C ,  8-C ) :   0.1015 B(  4-C , 16-H ) :   0.9457
B(  5-C ,  6-O ) :   0.3062 B(  5-C ,  8-C ) :   0.8705 B(  5-C ,  9-O ) :   0.2661
B(  6-O ,  7-C ) :   1.0176 B(  6-O ,  8-C ) :   0.2681 B(  7-C , 17-H ) :   1.0127
B(  7-C , 18-H ) :   0.9501 B(  7-C , 19-H ) :   0.9511 B(  8-C ,  9-O ) :   0.3153
B(  8-C , 11-C ) :   1.1712 B(  9-O , 10-C ) :   1.0046 B( 10-C , 20-H ) :   1.0121
B( 10-C , 21-H ) :   0.9517 B( 10-C , 22-H ) :   0.9497 B( 11-C , 23-H ) :   1.1064

-----------------------------------------------------------------------------
         ABSORPTION SPECTRUM VIA TRANSITION ELECTRIC DIPOLE MOMENTS
-----------------------------------------------------------------------------
State   Energy    Wavelength  fosc         T2        TX        TY        TZ
        (cm-1)      (nm)                 (au**2)    (au)      (au)      (au)
-----------------------------------------------------------------------------
   1   35698.4    280.1   0.471457750   4.34780  -1.89194  -0.87656   0.00329
   2   37983.8    263.3   0.015177043   0.13154  -0.28204  -0.22687   0.02297
   3   41274.3    242.3   0.012865315   0.10262   0.02401  -0.05272  -0.31506
   4   42727.7    234.0   0.000670510   0.00517   0.00293  -0.01257  -0.07071
   5   43376.7    230.5   0.000097811   0.00074  -0.00822   0.01586  -0.02057
   6   45248.9    221.0   0.003158882   0.02298  -0.12980   0.06616   0.04193
   7   45287.3    220.8   0.844700416   6.14047   2.30908  -0.82379   0.36056
   8   47055.7    212.5   0.004487322   0.03139  -0.10732   0.07505   0.11935
   9   47764.0    209.4   0.098698897   0.68028   0.78672  -0.21115   0.12949
  10   48316.2    207.0   0.001437982   0.00980  -0.09774   0.01558   0.00143

FINAL SINGLE POINT ENERGY      -538.098568194854

DIPOLE MOMENT
-------------
                                X             Y             Z
Electronic contribution:     -2.71002      -0.09508      -0.17603
Nuclear contribution   :      2.50286       0.03316       0.16587
                        -----------------------------------------
Total Dipole Moment    :     -0.20716      -0.06192      -0.01016
                        -----------------------------------------
Magnitude (a.u.)       :      0.21646
Magnitude (Debye)      :      0.55020

Rotational constants in cm-1:     0.044903     0.022560     0.015104
Rotational constants in MHz :  1346.153714   676.345512   452.800123

                             ****ORCA TERMINATED NORMALLY****
TOTAL RUN TIME: 0 days 0 hours 44 minutes 5 seconds 450 msec
