                         Program Version 5.0.2 -  RELEASE  -
|  1> ! wb97x-d3 aug-cc-PVTZ RIJCOSX Opt
|  2> %maxcore 4000
|  3> %basis
|  4>  AuxJ "aug-cc-PVTZ/JK"
|  5>  AuxC "aug-cc-PVTZ/C"
|  6>  newGTO H "cc-PVTZ" end
|  7>  newAuxJGTO H "cc-PVTZ/JK" end
|  8>  newAuxCGTO H "cc-PVTZ/C" end
|  9> end
| 10> %cpcm
| 11>  SMD true
| 12>  SMDsolvent "cyclohexane"
| 13> end
| 14> %pal nprocs 4 end
| 15> * xyz 0 1
| 16> C          4.01170        0.00820        0.34860
| 17> C          2.89560        0.69840        0.14290
| 18> C          1.53670        0.17630        0.10890
| 19> C          1.22560       -1.15920        0.32570
| 20> C         -0.08660       -1.60060        0.28110
| 21> C         -1.12440       -0.72160        0.01880
| 22> O         -2.44290       -1.05420       -0.04620
| 23> C         -2.80490       -2.39380        0.17280
| 24> C         -0.82610        0.64180       -0.20400
| 25> O         -1.90170        1.44160       -0.45490
| 26> C         -1.67710        2.80980       -0.67860
| 27> C          0.48660        1.06530       -0.15530
| 28> H          4.97400        0.49070        0.35540
| 29> H          4.01730       -1.05460        0.51790
| 30> H          2.96990        1.76700       -0.02210
| 31> H          2.00590       -1.87320        0.53430
| 32> H         -0.28990       -2.64540        0.45520
| 33> H         -3.88920       -2.42410        0.07670
| 34> H         -2.52200       -2.73030        1.17610
| 35> H         -2.35790       -3.06090       -0.57230
| 36> H         -2.66080        3.24430       -0.85090
| 37> H         -1.04920        2.97840       -1.56040
| 38> H         -1.21720        3.29190        0.19110
| 39> H          0.72640        2.10400       -0.32380
| 40> *
| 41>
| 42>
| 43> $new_job
| 44> ! wb97x-d3 aug-cc-PVTZ RIJCOSX SP
| 45> %maxcore 4000
| 46> %basis
| 47>  AuxJ "aug-cc-PVTZ/JK"
| 48>  AuxC "aug-cc-PVTZ/C"
| 49>  newGTO H "cc-PVTZ" end
| 50>  newAuxJGTO H "cc-PVTZ/JK" end
| 51>  newAuxCGTO H "cc-PVTZ/C" end
| 52> end
| 53> %cpcm
| 54>  SMD true
| 55>  SMDsolvent "cyclohexane"
| 56> end
| 57> %pal nprocs 4 end
| 58> %tddft
| 59>  nroots 10
| 60>  maxdim 7
| 61> end
| 62> * xyzfile 0 1
| 63>
| 64>                          ****END OF INPUT****
 Total Charge           Charge          ....    0
 Multiplicity           Mult            ....    1
 Number of Electrons    NEL             ....   88
Dispersion correction           -0.007340750
FINAL SINGLE POINT ENERGY      -538.735334632759
Dispersion correction            ... done
Dispersion correction           -0.007324069
FINAL SINGLE POINT ENERGY      -538.736003125457
Dispersion correction            ... done
Dispersion correction           -0.007325266
FINAL SINGLE POINT ENERGY      -538.736054402074
Dispersion correction            ... done
FINAL SINGLE POINT ENERGY      -538.736061971782
FINAL SINGLE POINT ENERGY      -538.736060605400
FINAL SINGLE POINT ENERGY      -538.736051365515
FINAL SINGLE POINT ENERGY      -538.736025647157
FINAL SINGLE POINT ENERGY      -538.736027701374
FINAL SINGLE POINT ENERGY      -538.736044144892
Dispersion correction           -0.007343575
FINAL SINGLE POINT ENERGY      -538.736038173575
Dispersion correction            ... done
Dispersion correction           -0.007342764
FINAL SINGLE POINT ENERGY      -538.736041362241
Dispersion correction            ... done
                    ***********************HURRAY********************
Dispersion correction           -0.007342691
FINAL SINGLE POINT ENERGY      -538.736041633637

CARTESIAN COORDINATES (ANGSTROEM)
---------------------------------
  C      4.009851   -0.000896    0.205721
  C      2.888201    0.709922    0.232747
  C      1.512629    0.185808    0.179528
  C      1.200610   -1.140325    0.424343
  C     -0.113865   -1.587157    0.345870
  C     -1.141219   -0.715835    0.028247
  O     -2.444431   -1.058596   -0.067630
  C     -2.786584   -2.410518    0.151116
  C     -0.840896    0.640459   -0.209171
  O     -1.895517    1.433660   -0.502378
  C     -1.649400    2.806903   -0.715058
  C      0.469835    1.069708   -0.128526
  H      4.974344    0.487104    0.256364
  H      4.012775   -1.081525    0.125692
  H      2.965577    1.792186    0.287063
  H      1.976062   -1.844751    0.694923
  H     -0.328836   -2.626783    0.546278
  H     -3.863041   -2.476716    0.013142
  H     -2.537204   -2.727597    1.167508
  H     -2.293218   -3.070834   -0.567315
  H     -2.618165    3.260701   -0.909447
  H     -0.998559    2.970078   -1.578403
  H     -1.206591    3.276142    0.167850
  H      0.707443    2.108664   -0.311465

 Multiplicity           Mult            ....    1
 Number of Electrons    NEL             ....   88
 Basis Dimension        Dim             ....  720

ORBITAL ENERGIES
----------------

  NO   OCC          E(Eh)            E(eV)
   0   2.0000     -19.265142      -524.2312
   1   2.0000     -19.264379      -524.2104
   2   2.0000     -10.339276      -281.3460
   3   2.0000     -10.338743      -281.3315
   4   2.0000     -10.323219      -280.9091
   5   2.0000     -10.322948      -280.9017
   6   2.0000     -10.285620      -279.8859
   7   2.0000     -10.283349      -279.8242
   8   2.0000     -10.278298      -279.6867
   9   2.0000     -10.277537      -279.6660
  10   2.0000     -10.274677      -279.5882
  11   2.0000     -10.267791      -279.4008
  12   2.0000      -1.197984       -32.5988
  13   2.0000      -1.176796       -32.0223
  14   2.0000      -0.978871       -26.6364
  15   2.0000      -0.909008       -24.7354
  16   2.0000      -0.871013       -23.7015
  17   2.0000      -0.855754       -23.2863
  18   2.0000      -0.817422       -22.2432
  19   2.0000      -0.798024       -21.7153
  20   2.0000      -0.725174       -19.7330
  21   2.0000      -0.709501       -19.3065
  22   2.0000      -0.665559       -18.1108
  23   2.0000      -0.639351       -17.3976
  24   2.0000      -0.610702       -16.6180
  25   2.0000      -0.599778       -16.3208
  26   2.0000      -0.581690       -15.8286
  27   2.0000      -0.570468       -15.5232
  28   2.0000      -0.563256       -15.3270
  29   2.0000      -0.548738       -14.9319
  30   2.0000      -0.535163       -14.5625
  31   2.0000      -0.521951       -14.2030
  32   2.0000      -0.504813       -13.7367
  33   2.0000      -0.491093       -13.3633
  34   2.0000      -0.482888       -13.1401
  35   2.0000      -0.464294       -12.6341
  36   2.0000      -0.448025       -12.1914
  37   2.0000      -0.436856       -11.8874
  38   2.0000      -0.422981       -11.5099
  39   2.0000      -0.420466       -11.4414
  40   2.0000      -0.419126       -11.4050
  41   2.0000      -0.371556       -10.1106
  42   2.0000      -0.323971        -8.8157
  43   2.0000      -0.281373        -7.6566
  44   0.0000       0.039902         1.0858
  45   0.0000       0.049642         1.3508
  46   0.0000       0.052178         1.4198
  47   0.0000       0.054815         1.4916
  48   0.0000       0.067182         1.8281

MULLIKEN ATOMIC CHARGES
-----------------------
   0 C :   -0.756073
   1 C :   -0.112702
   2 C :    1.942219
   3 C :   -0.794026
   4 C :   -0.848892
   5 C :    0.835571
   6 O :   -0.360837
   7 C :   -0.666418
   8 C :    0.896530
   9 O :   -0.368088
  10 C :   -0.681125
  11 C :   -1.228731
  12 H :    0.193694
  13 H :    0.195227
  14 H :    0.151100
  15 H :    0.100746
  16 H :    0.222784
  17 H :    0.138930
  18 H :    0.209713
  19 H :    0.209609
  20 H :    0.140744
  21 H :    0.210378
  22 H :    0.214006
  23 H :    0.155641
Sum of atomic charges:   -0.0000000

LOEWDIN ATOMIC CHARGES
----------------------
   0 C :    0.040767
   1 C :   -0.253961
   2 C :   -0.457588
   3 C :   -0.078252
   4 C :   -0.066275
   5 C :   -0.573866
   6 O :    0.374868
   7 C :   -0.205637
   8 C :   -0.559416
   9 O :    0.375734
  10 C :   -0.204692
  11 C :   -0.021733
  12 H :    0.092877
  13 H :    0.117098
  14 H :    0.182596
  15 H :    0.191471
  16 H :    0.191462
  17 H :    0.096585
  18 H :    0.112595
  19 H :    0.113383
  20 H :    0.096686
  21 H :    0.112336
  22 H :    0.113645
  23 H :    0.209317

  Mayer bond orders larger than 0.100000
B(  0-C ,  1-C ) :   1.3010 B(  0-C ,  2-C ) :  -0.1876 B(  0-C ,  3-C ) :   0.2927
B(  0-C , 12-H ) :   0.9855 B(  0-C , 13-H ) :   0.9959 B(  1-C ,  2-C ) :   0.3734
B(  1-C , 11-C ) :   0.2273 B(  1-C , 14-H ) :   1.0819 B(  2-C ,  3-C ) :   0.2427
B(  2-C , 15-H ) :  -0.2258 B(  2-C , 23-H ) :  -0.1872 B(  3-C ,  4-C ) :   0.9057
B(  3-C ,  8-C ) :  -0.1004 B(  3-C , 11-C ) :   0.2918 B(  3-C , 15-H ) :   1.2140
B(  4-C ,  5-C ) :   1.2528 B(  4-C ,  6-O ) :  -0.1219 B(  4-C ,  8-C ) :   0.1660
B(  4-C , 11-C ) :  -0.1138 B(  4-C , 16-H ) :   0.9759 B(  5-C ,  6-O ) :   0.3067
B(  5-C ,  8-C ) :   0.9105 B(  5-C ,  9-O ) :   0.1960 B(  6-O ,  7-C ) :   0.9364
B(  6-O ,  8-C ) :   0.2152 B(  7-C , 17-H ) :   1.0276 B(  7-C , 18-H ) :   0.9477
B(  7-C , 19-H ) :   0.9484 B(  8-C ,  9-O ) :   0.3162 B(  8-C , 11-C ) :   1.0042
B(  9-O , 10-C ) :   0.9162 B( 10-C , 20-H ) :   1.0256 B( 10-C , 21-H ) :   0.9492
B( 10-C , 22-H ) :   0.9446 B( 11-C , 23-H ) :   1.1712

-----------------------------------------------------------------------------
         ABSORPTION SPECTRUM VIA TRANSITION ELECTRIC DIPOLE MOMENTS
-----------------------------------------------------------------------------
State   Energy    Wavelength  fosc         T2        TX        TY        TZ
        (cm-1)      (nm)                 (au**2)    (au)      (au)      (au)
-----------------------------------------------------------------------------
   1   39374.1    254.0   0.534726263   4.47092  -1.98097  -0.73848   0.03657
   2   40210.8    248.7   0.026976142   0.22086  -0.29107  -0.35800   0.08928
   3   46182.4    216.5   0.016769745   0.11954  -0.02981   0.09511   0.33107
   4   49067.6    203.8   0.002625704   0.01762  -0.11635   0.00449   0.06372
   5   49855.7    200.6   0.949039335   6.26679   2.19681  -1.14423   0.36267
   6   49978.3    200.1   0.171021424   1.12653   0.89076  -0.49834   0.29110
   7   51949.9    192.5   0.134990433   0.85545  -0.74433  -0.54876   0.01680
   8   52282.2    191.3   0.035198694   0.22164  -0.34604  -0.31912   0.00758
   9   52622.1    190.0   0.055589785   0.34778  -0.46747  -0.33867   0.12063
  10   53544.3    186.8   0.009768544   0.06006   0.10049   0.19170   0.11494

Dispersion correction           -0.007342691
FINAL SINGLE POINT ENERGY      -538.556640285371

DIPOLE MOMENT
-------------
                                X             Y             Z
Electronic contribution:     -2.55639      -0.06060      -0.07840
Nuclear contribution   :      2.46543       0.01586       0.09973
                        -----------------------------------------
Total Dipole Moment    :     -0.09096      -0.04473       0.02132
                        -----------------------------------------
Magnitude (a.u.)       :      0.10359
Magnitude (Debye)      :      0.26330

Rotational constants in cm-1:     0.044838     0.022563     0.015126
Rotational constants in MHz :  1344.207953   676.432161   453.478210

                             ****ORCA TERMINATED NORMALLY****
TOTAL RUN TIME: 0 days 1 hours 59 minutes 21 seconds 972 msec
