                         Program Version 5.0.2 -  RELEASE  -
|  1> ! x3lyp aug-cc-PVTZ RIJCOSX Opt
|  2> %maxcore 4000
|  3> %basis
|  4>  AuxJ "aug-cc-PVTZ/JK"
|  5>  AuxC "aug-cc-PVTZ/C"
|  6>  newGTO H "cc-PVTZ" end
|  7>  newAuxJGTO H "cc-PVTZ/JK" end
|  8>  newAuxCGTO H "cc-PVTZ/C" end
|  9> end
| 10> %cpcm
| 11>  SMD true
| 12>  SMDsolvent "cyclohexane"
| 13> end
| 14> %pal nprocs 4 end
| 15> * xyz 0 1
| 16> C          4.01170        0.00820        0.34860
| 17> C          2.89560        0.69840        0.14290
| 18> C          1.53670        0.17630        0.10890
| 19> C          1.22560       -1.15920        0.32570
| 20> C         -0.08660       -1.60060        0.28110
| 21> C         -1.12440       -0.72160        0.01880
| 22> O         -2.44290       -1.05420       -0.04620
| 23> C         -2.80490       -2.39380        0.17280
| 24> C         -0.82610        0.64180       -0.20400
| 25> O         -1.90170        1.44160       -0.45490
| 26> C         -1.67710        2.80980       -0.67860
| 27> C          0.48660        1.06530       -0.15530
| 28> H          4.97400        0.49070        0.35540
| 29> H          4.01730       -1.05460        0.51790
| 30> H          2.96990        1.76700       -0.02210
| 31> H          2.00590       -1.87320        0.53430
| 32> H         -0.28990       -2.64540        0.45520
| 33> H         -3.88920       -2.42410        0.07670
| 34> H         -2.52200       -2.73030        1.17610
| 35> H         -2.35790       -3.06090       -0.57230
| 36> H         -2.66080        3.24430       -0.85090
| 37> H         -1.04920        2.97840       -1.56040
| 38> H         -1.21720        3.29190        0.19110
| 39> H          0.72640        2.10400       -0.32380
| 40> *
| 41>
| 42>
| 43> $new_job
| 44> ! x3lyp aug-cc-PVTZ RIJCOSX SP
| 45> %maxcore 4000
| 46> %basis
| 47>  AuxJ "aug-cc-PVTZ/JK"
| 48>  AuxC "aug-cc-PVTZ/C"
| 49>  newGTO H "cc-PVTZ" end
| 50>  newAuxJGTO H "cc-PVTZ/JK" end
| 51>  newAuxCGTO H "cc-PVTZ/C" end
| 52> end
| 53> %cpcm
| 54>  SMD true
| 55>  SMDsolvent "cyclohexane"
| 56> end
| 57> %pal nprocs 4 end
| 58> %tddft
| 59>  nroots 10
| 60>  maxdim 7
| 61> end
| 62> * xyzfile 0 1
| 63>
| 64>                          ****END OF INPUT****
 Total Charge           Charge          ....    0
 Multiplicity           Mult            ....    1
 Number of Electrons    NEL             ....   88
FINAL SINGLE POINT ENERGY      -538.434881629552
FINAL SINGLE POINT ENERGY      -538.435531695652
FINAL SINGLE POINT ENERGY      -538.435601204684
FINAL SINGLE POINT ENERGY      -538.435611658231
FINAL SINGLE POINT ENERGY      -538.435615109846
                    ***********************HURRAY********************
FINAL SINGLE POINT ENERGY      -538.435614886760

CARTESIAN COORDINATES (ANGSTROEM)
---------------------------------
  C      4.031455    0.017133    0.333272
  C      2.899521    0.698101    0.150557
  C      1.530024    0.172299    0.118761
  C      1.214455   -1.165478    0.336884
  C     -0.104425   -1.603499    0.289775
  C     -1.143218   -0.718869    0.024717
  O     -2.454070   -1.058660   -0.038416
  C     -2.809246   -2.417929    0.171638
  C     -0.842217    0.642139   -0.198412
  O     -1.903575    1.449589   -0.452446
  C     -1.661012    2.828921   -0.686684
  C      0.476935    1.063931   -0.147593
  H      4.985639    0.525984    0.335196
  H      4.055139   -1.054630    0.483095
  H      2.973561    1.771220    0.002228
  H      1.992428   -1.884871    0.549862
  H     -0.318375   -2.646888    0.464481
  H     -3.890898   -2.461780    0.071958
  H     -2.526904   -2.755936    1.171889
  H     -2.352456   -3.070688   -0.576280
  H     -2.635243    3.275846   -0.868531
  H     -1.026940    2.980698   -1.563770
  H     -1.202654    3.308776    0.181783
  H      0.711875    2.104391   -0.316966

 Multiplicity           Mult            ....    1
 Number of Electrons    NEL             ....   88
 Basis Dimension        Dim             ....  720

ORBITAL ENERGIES
----------------

  NO   OCC          E(Eh)            E(eV)
   0   2.0000     -19.190389      -522.1970
   1   2.0000     -19.188806      -522.1540
   2   2.0000     -10.255512      -279.0667
   3   2.0000     -10.254719      -279.0451
   4   2.0000     -10.241373      -278.6819
   5   2.0000     -10.240657      -278.6624
   6   2.0000     -10.201167      -277.5879
   7   2.0000     -10.198068      -277.5035
   8   2.0000     -10.194910      -277.4176
   9   2.0000     -10.193684      -277.3842
  10   2.0000     -10.190607      -277.3005
  11   2.0000     -10.182771      -277.0873
  12   2.0000      -1.084033       -29.4980
  13   2.0000      -1.063822       -28.9481
  14   2.0000      -0.863256       -23.4904
  15   2.0000      -0.795441       -21.6450
  16   2.0000      -0.759347       -20.6629
  17   2.0000      -0.744077       -20.2474
  18   2.0000      -0.709149       -19.2969
  19   2.0000      -0.688984       -18.7482
  20   2.0000      -0.619779       -16.8651
  21   2.0000      -0.605530       -16.4773
  22   2.0000      -0.562027       -15.2935
  23   2.0000      -0.537775       -14.6336
  24   2.0000      -0.509861       -13.8740
  25   2.0000      -0.501902       -13.6574
  26   2.0000      -0.478618       -13.0239
  27   2.0000      -0.471747       -12.8369
  28   2.0000      -0.463523       -12.6131
  29   2.0000      -0.451279       -12.2799
  30   2.0000      -0.439168       -11.9504
  31   2.0000      -0.426673       -11.6104
  32   2.0000      -0.411014       -11.1843
  33   2.0000      -0.392948       -10.6927
  34   2.0000      -0.391197       -10.6450
  35   2.0000      -0.372946       -10.1484
  36   2.0000      -0.354578        -9.6486
  37   2.0000      -0.343514        -9.3475
  38   2.0000      -0.333974        -9.0879
  39   2.0000      -0.329476        -8.9655
  40   2.0000      -0.329073        -8.9545
  41   2.0000      -0.280067        -7.6210
  42   2.0000      -0.240502        -6.5444
  43   2.0000      -0.202503        -5.5104
  44   0.0000      -0.031306        -0.8519
  45   0.0000      -0.000061        -0.0017
  46   0.0000       0.001074         0.0292
  47   0.0000       0.004057         0.1104
  48   0.0000       0.010207         0.2777

MULLIKEN ATOMIC CHARGES
-----------------------
   0 C :   -0.733340
   1 C :   -0.110269
   2 C :    1.764746
   3 C :   -0.574754
   4 C :   -0.679728
   5 C :    0.715939
   6 O :   -0.389356
   7 C :   -0.551795
   8 C :    0.768001
   9 O :   -0.389002
  10 C :   -0.566166
  11 C :   -0.956502
  12 H :    0.160876
  13 H :    0.153805
  14 H :    0.094432
  15 H :    0.033910
  16 H :    0.158171
  17 H :    0.138913
  18 H :    0.185881
  19 H :    0.185104
  20 H :    0.141430
  21 H :    0.186094
  22 H :    0.187324
  23 H :    0.076284
Sum of atomic charges:   -0.0000000

LOEWDIN ATOMIC CHARGES
----------------------
   0 C :    0.037237
   1 C :   -0.256529
   2 C :   -0.451239
   3 C :   -0.075285
   4 C :   -0.065520
   5 C :   -0.567247
   6 O :    0.377472
   7 C :   -0.203551
   8 C :   -0.553339
   9 O :    0.377660
  10 C :   -0.204234
  11 C :   -0.020845
  12 H :    0.091237
  13 H :    0.112929
  14 H :    0.182726
  15 H :    0.188047
  16 H :    0.188473
  17 H :    0.096609
  18 H :    0.110665
  19 H :    0.110872
  20 H :    0.096553
  21 H :    0.110897
  22 H :    0.110732
  23 H :    0.205677

  Mayer bond orders larger than 0.100000
B(  0-C ,  1-C ) :   1.3016 B(  0-C ,  2-C ) :  -0.1369 B(  0-C ,  3-C ) :   0.2273
B(  0-C , 12-H ) :   0.9891 B(  0-C , 13-H ) :   1.0088 B(  1-C ,  2-C ) :   0.4476
B(  1-C ,  3-C ) :   0.1524 B(  1-C , 11-C ) :   0.1479 B(  1-C , 14-H ) :   1.0971
B(  2-C ,  3-C ) :   0.4956 B(  2-C , 11-C ) :   0.1857 B(  2-C , 15-H ) :  -0.1703
B(  2-C , 23-H ) :  -0.1775 B(  3-C ,  4-C ) :   0.7275 B(  3-C ,  8-C ) :  -0.1035
B(  3-C , 11-C ) :   0.1398 B(  3-C , 15-H ) :   1.1995 B(  4-C ,  5-C ) :   1.3604
B(  4-C ,  8-C ) :   0.1040 B(  4-C , 16-H ) :   1.0098 B(  5-C ,  6-O ) :   0.2558
B(  5-C ,  8-C ) :   0.7982 B(  5-C ,  9-O ) :   0.2737 B(  5-C , 11-C ) :  -0.1164
B(  6-O ,  7-C ) :   0.9361 B(  6-O ,  8-C ) :   0.2827 B(  7-C , 17-H ) :   1.0192
B(  7-C , 18-H ) :   0.9560 B(  7-C , 19-H ) :   0.9566 B(  8-C ,  9-O ) :   0.2691
B(  8-C , 11-C ) :   1.0845 B(  9-O , 10-C ) :   0.9224 B( 10-C , 20-H ) :   1.0169
B( 10-C , 21-H ) :   0.9574 B( 10-C , 22-H ) :   0.9559 B( 11-C , 23-H ) :   1.2029

-----------------------------------------------------------------------------
         ABSORPTION SPECTRUM VIA TRANSITION ELECTRIC DIPOLE MOMENTS
-----------------------------------------------------------------------------
State   Energy    Wavelength  fosc         T2        TX        TY        TZ
        (cm-1)      (nm)                 (au**2)    (au)      (au)      (au)
-----------------------------------------------------------------------------
   1   34817.3    287.2   0.445836554   4.21556   1.86019   0.86905  -0.00170
   2   37115.8    269.4   0.016671194   0.14787   0.31795   0.21566  -0.01641
   3   38735.4    258.2   0.011322379   0.09623   0.02382  -0.04978  -0.30526
   4   40105.6    249.3   0.000564870   0.00464  -0.00474   0.01175   0.06691
   5   40987.6    244.0   0.000249628   0.00201   0.00154  -0.00810   0.04401
   6   42774.2    233.8   0.000615816   0.00474  -0.00707  -0.01798  -0.06608
   7   44024.3    227.1   0.684131507   5.11591  -2.11419   0.73179  -0.33252
   8   44413.4    225.2   0.012074893   0.08950   0.25328  -0.12469  -0.09903
   9   45649.2    219.1   0.186517299   1.34512  -1.10103   0.31994  -0.17460
  10   45853.9    218.1   0.019887416   0.14278  -0.36352   0.09714  -0.03468

FINAL SINGLE POINT ENERGY      -538.276975423666

DIPOLE MOMENT
-------------
                                X             Y             Z
Electronic contribution:     -2.62155      -0.12023      -0.16144
Nuclear contribution   :      2.42695       0.05488       0.15165
                        -----------------------------------------
Total Dipole Moment    :     -0.19460      -0.06535      -0.00979
                        -----------------------------------------
Magnitude (a.u.)       :      0.20551
Magnitude (Debye)      :      0.52237

Rotational constants in cm-1:     0.044546     0.022358     0.014972
Rotational constants in MHz :  1335.447718   670.290423   448.861329

                             ****ORCA TERMINATED NORMALLY****
TOTAL RUN TIME: 0 days 0 hours 43 minutes 7 seconds 332 msec
