                         Program Version 5.0.2 -  RELEASE  -
|  1> ! b3lyp aug-cc-PVTZ RIJCOSX Opt
|  2> %maxcore 4000
|  3> %basis
|  4>  AuxJ "aug-cc-PVTZ/JK"
|  5>  AuxC "aug-cc-PVTZ/C"
|  6>  newGTO H "cc-PVTZ" end
|  7>  newAuxJGTO H "cc-PVTZ/JK" end
|  8>  newAuxCGTO H "cc-PVTZ/C" end
|  9> end
| 10> %cpcm
| 11>  SMD true
| 12>  SMDsolvent "dichloromethane"
| 13> end
| 14> %pal nprocs 4 end
| 15> * xyz 0 1
| 16> N          5.18490        2.63730       -4.83100
| 17> C          4.41990        2.18600       -4.10520
| 18> C          3.47960        1.62540       -3.21360
| 19> C          3.81050        0.48660       -2.47740
| 20> C          2.89070       -0.06950       -1.61400
| 21> C          1.61870        0.49270       -1.47470
| 22> C          0.61840       -0.03480       -0.57060
| 23> N         -0.23240        0.73970        0.07850
| 24> C         -0.98250       -0.03610        0.88210
| 25> C         -1.98970        0.53960        1.75660
| 26> C         -2.34920       -0.05530        2.96470
| 27> C         -3.31410        0.52360        3.76750
| 28> C         -3.92820        1.70400        3.38340
| 29> C         -3.56060        2.31420        2.19460
| 30> C         -2.59840        1.73970        1.38830
| 31> C         -0.61200       -1.37630        0.69960
| 32> C         -1.07960       -2.61750        1.16040
| 33> C         -0.51410       -3.76710        0.69320
| 34> C          0.51450       -3.70090       -0.27770
| 35> C          0.95240       -2.50220       -0.73580
| 36> N          0.42230       -1.34920       -0.24000
| 37> C          1.30890        1.65410       -2.19150
| 38> C          2.22270        2.21520       -3.05360
| 39> H          4.79400        0.05190       -2.58240
| 40> H          3.18170       -0.91920       -1.01440
| 41> H         -1.85040       -0.95500        3.29260
| 42> H         -3.58420        0.05460        4.70290
| 43> H         -4.68310        2.15140        4.01310
| 44> H         -4.02820        3.24160        1.89740
| 45> H         -2.29980        2.20590        0.46230
| 46> H         -1.89870       -2.63830        1.86010
| 47> H         -0.85840       -4.73030        1.03380
| 48> H          0.93860       -4.60940       -0.67300
| 49> H          1.69130       -2.40820       -1.51490
| 50> H          0.33660        2.09850       -2.05020
| 51> H          1.97830        3.10720       -3.61130
| 52> *
| 53>
| 54>
| 55> $new_job
| 56> ! b3lyp aug-cc-PVTZ RIJCOSX SP
| 57> %maxcore 4000
| 58> %basis
| 59>  AuxJ "aug-cc-PVTZ/JK"
| 60>  AuxC "aug-cc-PVTZ/C"
| 61>  newGTO H "cc-PVTZ" end
| 62>  newAuxJGTO H "cc-PVTZ/JK" end
| 63>  newAuxCGTO H "cc-PVTZ/C" end
| 64> end
| 65> %cpcm
| 66>  SMD true
| 67>  SMDsolvent "dichloromethane"
| 68> end
| 69> %pal nprocs 4 end
| 70> %tddft
| 71>  nroots 10
| 72>  maxdim 7
| 73> end
| 74> * xyzfile 0 1
| 75>
| 76>                          ****END OF INPUT****
 Total Charge           Charge          ....    0
 Multiplicity           Mult            ....    1
 Number of Electrons    NEL             ....  154
FINAL SINGLE POINT ENERGY      -933.994584382582
FINAL SINGLE POINT ENERGY      -933.996553522931
FINAL SINGLE POINT ENERGY      -933.996694546201
FINAL SINGLE POINT ENERGY      -933.996720754354
FINAL SINGLE POINT ENERGY      -933.996728875413
FINAL SINGLE POINT ENERGY      -933.996731231744
                    ***********************HURRAY********************
FINAL SINGLE POINT ENERGY      -933.996732637490

CARTESIAN COORDINATES (ANGSTROEM)
---------------------------------
  N      5.242040    2.635259   -4.880149
  C      4.471714    2.184434   -4.148786
  C      3.520442    1.623275   -3.247035
  C      3.830447    0.458772   -2.536593
  C      2.903208   -0.090119   -1.668306
  C      1.643812    0.502670   -1.489379
  C      0.638442   -0.015161   -0.564768
  N     -0.208244    0.758678    0.101279
  C     -0.975862   -0.023537    0.902262
  C     -2.005768    0.548619    1.776779
  C     -2.370907   -0.050922    2.990430
  C     -3.352688    0.512929    3.796857
  C     -3.984852    1.692481    3.416597
  C     -3.622814    2.305331    2.219419
  C     -2.646551    1.741610    1.409296
  C     -0.616156   -1.364070    0.711570
  C     -1.076534   -2.615104    1.177641
  C     -0.517152   -3.766644    0.703882
  C      0.513637   -3.703270   -0.273664
  C      0.959677   -2.508535   -0.734141
  N      0.422003   -1.339453   -0.236053
  C      1.354389    1.682726   -2.196154
  C      2.274274    2.237880   -3.063809
  H      4.799793   -0.004363   -2.657309
  H      3.186882   -0.964381   -1.101888
  H     -1.868906   -0.948345    3.323425
  H     -3.614658    0.033756    4.731645
  H     -4.747557    2.131326    4.046633
  H     -4.107287    3.223728    1.912850
  H     -2.378564    2.219012    0.476685
  H     -1.882201   -2.642977    1.895161
  H     -0.866073   -4.728277    1.052935
  H      0.946321   -4.607649   -0.675991
  H      1.710634   -2.415880   -1.499159
  H      0.392427    2.156091   -2.063791
  H      2.033033    3.140011   -3.608569

 Multiplicity           Mult            ....    1
 Number of Electrons    NEL             ....  154
 Basis Dimension        Dim             .... 1240

ORBITAL ENERGIES
----------------

  NO   OCC          E(Eh)            E(eV)
   0   2.0000     -14.404968      -391.9791
   1   2.0000     -14.321950      -389.7201
   2   2.0000     -14.314093      -389.5063
   3   2.0000     -10.241722      -278.6914
   4   2.0000     -10.226624      -278.2806
   5   2.0000     -10.223460      -278.1945
   6   2.0000     -10.222860      -278.1782
   7   2.0000     -10.219836      -278.0959
   8   2.0000     -10.211436      -277.8673
   9   2.0000     -10.204086      -277.6673
  10   2.0000     -10.197605      -277.4909
  11   2.0000     -10.196465      -277.4599
  12   2.0000     -10.191740      -277.3313
  13   2.0000     -10.190956      -277.3100
  14   2.0000     -10.189222      -277.2628
  15   2.0000     -10.188087      -277.2319
  16   2.0000     -10.187684      -277.2210
  17   2.0000     -10.187192      -277.2076
  18   2.0000     -10.173951      -276.8473
  19   2.0000     -10.173216      -276.8273
  20   2.0000     -10.172967      -276.8205
  21   2.0000     -10.171747      -276.7873
  22   2.0000     -10.171504      -276.7807
  23   2.0000      -1.041611       -28.3437
  24   2.0000      -0.922563       -25.1042
  25   2.0000      -0.920623       -25.0514
  26   2.0000      -0.881151       -23.9773
  27   2.0000      -0.858904       -23.3720
  28   2.0000      -0.830404       -22.5964
  29   2.0000      -0.803315       -21.8593
  30   2.0000      -0.779429       -21.2093
  31   2.0000      -0.767209       -20.8768
  32   2.0000      -0.763169       -20.7669
  33   2.0000      -0.745067       -20.2743
  34   2.0000      -0.717259       -19.5176
  35   2.0000      -0.665445       -18.1077
  36   2.0000      -0.656318       -17.8593
  37   2.0000      -0.641103       -17.4453
  38   2.0000      -0.623353       -16.9623
  39   2.0000      -0.611388       -16.6367
  40   2.0000      -0.593617       -16.1532
  41   2.0000      -0.581188       -15.8149
  42   2.0000      -0.561840       -15.2885
  43   2.0000      -0.540768       -14.7150
  44   2.0000      -0.516296       -14.0491
  45   2.0000      -0.502719       -13.6797
  46   2.0000      -0.492121       -13.3913
  47   2.0000      -0.483530       -13.1575
  48   2.0000      -0.475149       -12.9295
  49   2.0000      -0.470584       -12.8052
  50   2.0000      -0.463225       -12.6050
  51   2.0000      -0.454384       -12.3644
  52   2.0000      -0.446862       -12.1597
  53   2.0000      -0.440335       -11.9821
  54   2.0000      -0.435279       -11.8446
  55   2.0000      -0.420942       -11.4544
  56   2.0000      -0.417114       -11.3502
  57   2.0000      -0.409641       -11.1469
  58   2.0000      -0.397684       -10.8215
  59   2.0000      -0.391021       -10.6402
  60   2.0000      -0.380317       -10.3490
  61   2.0000      -0.378095       -10.2885
  62   2.0000      -0.372056       -10.1242
  63   2.0000      -0.367741       -10.0067
  64   2.0000      -0.364174        -9.9097
  65   2.0000      -0.351436        -9.5631
  66   2.0000      -0.347172        -9.4470
  67   2.0000      -0.342435        -9.3181
  68   2.0000      -0.339664        -9.2427
  69   2.0000      -0.323410        -8.8004
  70   2.0000      -0.291897        -7.9429
  71   2.0000      -0.285856        -7.7785
  72   2.0000      -0.274258        -7.4629
  73   2.0000      -0.268694        -7.3115
  74   2.0000      -0.258295        -7.0286
  75   2.0000      -0.256041        -6.9672
  76   2.0000      -0.193237        -5.2583
  77   0.0000      -0.068747        -1.8707
  78   0.0000      -0.049982        -1.3601
  79   0.0000      -0.027761        -0.7554
  80   0.0000      -0.023941        -0.6515
  81   0.0000      -0.013683        -0.3723

MULLIKEN ATOMIC CHARGES
-----------------------
   0 N :   -0.786988
   1 C :    0.365482
   2 C :    1.511798
   3 C :   -1.053817
   4 C :   -0.539656
   5 C :    2.281018
   6 C :   -0.177473
   7 N :   -1.151135
   8 C :    0.583089
   9 C :    1.995414
  10 C :   -0.493130
  11 C :   -0.500471
  12 C :   -0.213197
  13 C :   -0.536011
  14 C :   -0.481044
  15 C :    0.102030
  16 C :   -0.511419
  17 C :   -0.580040
  18 C :   -0.327204
  19 C :   -0.168464
  20 N :    0.366054
  21 C :   -0.554449
  22 C :   -1.034277
  23 H :    0.132119
  24 H :    0.063459
  25 H :    0.022766
  26 H :    0.199622
  27 H :    0.207693
  28 H :    0.207263
  29 H :    0.083155
  30 H :    0.076789
  31 H :    0.232747
  32 H :    0.165311
  33 H :    0.293505
  34 H :    0.086480
  35 H :    0.132980
Sum of atomic charges:   -0.0000000

LOEWDIN ATOMIC CHARGES
----------------------
   0 N :    0.227163
   1 C :   -0.299738
   2 C :   -0.381968
   3 C :   -0.016463
   4 C :   -0.014615
   5 C :   -0.281560
   6 C :   -0.419210
   7 N :    0.378831
   8 C :   -0.340944
   9 C :   -0.318427
  10 C :   -0.059427
  11 C :   -0.134179
  12 C :   -0.149773
  13 C :   -0.132994
  14 C :   -0.057244
  15 C :   -0.284967
  16 C :   -0.008399
  17 C :   -0.104146
  18 C :   -0.098728
  19 C :   -0.073514
  20 N :    0.167728
  21 C :   -0.005150
  22 C :   -0.012940
  23 H :    0.195206
  24 H :    0.198401
  25 H :    0.194798
  26 H :    0.169183
  27 H :    0.166551
  28 H :    0.169215
  29 H :    0.193740
  30 H :    0.195237
  31 H :    0.171642
  32 H :    0.173778
  33 H :    0.197502
  34 H :    0.200541
  35 H :    0.194869

  Mayer bond orders larger than 0.100000
B(  0-N ,  1-C ) :   1.7228 B(  0-N ,  2-C ) :   0.1632 B(  0-N , 22-C ) :   0.1081
B(  1-C ,  2-C ) :   0.3046 B(  1-C ,  3-C ) :   0.2752 B(  1-C ,  5-C ) :   0.1419
B(  1-C , 22-C ) :   0.2471 B(  2-C ,  3-C ) :   0.5070 B(  2-C ,  4-C ) :   0.1065
B(  2-C ,  5-C ) :  -0.2344 B(  2-C , 21-C ) :   0.1568 B(  2-C , 22-C ) :   0.5094
B(  2-C , 23-H ) :  -0.1321 B(  2-C , 35-H ) :  -0.1208 B(  3-C ,  4-C ) :   1.3610
B(  3-C , 22-C ) :   0.1265 B(  3-C , 23-H ) :   1.1269 B(  4-C ,  5-C ) :   0.3296
B(  4-C ,  6-C ) :   0.2535 B(  4-C ,  7-N ) :   0.1078 B(  4-C , 20-N ) :   0.1069
B(  4-C , 21-C ) :  -0.2953 B(  4-C , 24-H ) :   1.1994 B(  5-C ,  6-C ) :  -0.5913
B(  5-C ,  7-N ) :  -0.2605 B(  5-C ,  8-C ) :   0.1828 B(  5-C , 20-N ) :  -0.1423
B(  5-C , 21-C ) :   0.3807 B(  5-C , 24-H ) :  -0.1972 B(  5-C , 34-H ) :  -0.1761
B(  6-C ,  7-N ) :   1.0143 B(  6-C ,  8-C ) :  -0.3130 B(  6-C , 16-C ) :   0.1733
B(  6-C , 19-C ) :  -0.4730 B(  6-C , 20-N ) :   0.9792 B(  6-C , 21-C ) :   0.1045
B(  7-N , 10-C ) :   0.1329 B(  7-N , 15-C ) :   0.6446 B(  7-N , 20-N ) :  -0.3688
B(  8-C , 10-C ) :   0.3186 B(  8-C , 11-C ) :   0.1093 B(  8-C , 14-C ) :   0.2822
B(  8-C , 15-C ) :   1.2667 B(  8-C , 16-C ) :  -0.3877 B(  8-C , 20-N ) :  -0.2902
B(  9-C , 10-C ) :   0.5608 B(  9-C , 11-C ) :  -0.1210 B(  9-C , 13-C ) :  -0.1131
B(  9-C , 14-C ) :   0.5423 B(  9-C , 15-C ) :  -0.2139 B(  9-C , 20-N ) :   0.1542
B(  9-C , 25-H ) :  -0.1940 B(  9-C , 29-H ) :  -0.1313 B( 10-C , 11-C ) :   1.1848
B( 10-C , 14-C ) :  -0.2206 B( 10-C , 25-H ) :   1.2150 B( 11-C , 12-C ) :   1.2348
B( 11-C , 13-C ) :   0.1142 B( 11-C , 26-H ) :   0.9662 B( 12-C , 13-C ) :   1.1932
B( 12-C , 27-H ) :   0.9365 B( 13-C , 14-C ) :   1.1909 B( 13-C , 28-H ) :   0.9492
B( 14-C , 29-H ) :   1.1601 B( 15-C , 16-C ) :   1.0102 B( 15-C , 17-C ) :   0.1762
B( 15-C , 20-N ) :   0.4301 B( 15-C , 30-H ) :  -0.1145 B( 16-C , 17-C ) :   1.4721
B( 16-C , 19-C ) :  -0.1360 B( 16-C , 20-N ) :  -0.1573 B( 16-C , 30-H ) :   1.1878
B( 17-C , 18-C ) :   1.2001 B( 17-C , 19-C ) :   0.1651 B( 17-C , 20-N ) :  -0.1975
B( 17-C , 31-H ) :   0.9059 B( 18-C , 19-C ) :   1.1430 B( 18-C , 20-N ) :  -0.2053
B( 18-C , 32-H ) :   1.0605 B( 19-C , 20-N ) :   1.3402 B( 19-C , 32-H ) :  -0.1005
B( 19-C , 33-H ) :   0.8479 B( 21-C , 22-C ) :   1.3108 B( 21-C , 34-H ) :   1.1861
B( 22-C , 35-H ) :   1.1168

-----------------------------------------------------------------------------
         ABSORPTION SPECTRUM VIA TRANSITION ELECTRIC DIPOLE MOMENTS
-----------------------------------------------------------------------------
State   Energy    Wavelength  fosc         T2        TX        TY        TZ
        (cm-1)      (nm)                 (au**2)    (au)      (au)      (au)
-----------------------------------------------------------------------------
   1   24357.5    410.6   0.699114788   9.44911  -1.99221  -1.42264   1.85911
   2   27404.8    364.9   0.235324789   2.82694  -0.99267   1.04806   0.86204
   3   31365.6    318.8   0.001552692   0.01630  -0.12396  -0.01571  -0.02615
   4   32998.9    303.0   0.406893318   4.05935   1.07174  -1.46179  -0.87972
   5   34333.6    291.3   0.024208188   0.23212  -0.20172   0.43743  -0.00933
   6   36736.3    272.2   0.000640201   0.00574  -0.05923   0.02457  -0.04031
   7   37745.2    264.9   0.121822423   1.06253   0.56985   0.51348  -0.68858
   8   38236.9    261.5   0.190359943   1.63896  -0.73984  -0.78222   0.69263
   9   39088.0    255.8   0.002144338   0.01806   0.09518   0.06534   0.06880
  10   39328.7    254.3   0.003379470   0.02829   0.01792  -0.11474  -0.12166

FINAL SINGLE POINT ENERGY      -933.885751301403

DIPOLE MOMENT
-------------
                                X             Y             Z
Electronic contribution:      7.98948       1.90767      -7.11944
Nuclear contribution   :     -9.33134      -4.90603       8.51219
                        -----------------------------------------
Total Dipole Moment    :     -1.34186      -2.99836       1.39275
                        -----------------------------------------
Magnitude (a.u.)       :      3.56798
Magnitude (Debye)      :      9.06909

Rotational constants in cm-1:     0.015760     0.004595     0.003629
Rotational constants in MHz :   472.462934   137.744761   108.798608

                             ****ORCA TERMINATED NORMALLY****
TOTAL RUN TIME: 0 days 3 hours 22 minutes 3 seconds 792 msec
