                         Program Version 5.0.2 -  RELEASE  -
|  1> ! m062x defgrid3 aug-cc-PVTZ RIJCOSX Opt
|  2> %maxcore 4000
|  3> %basis
|  4>  AuxJ "aug-cc-PVTZ/JK"
|  5>  AuxC "aug-cc-PVTZ/C"
|  6>  newGTO H "cc-PVTZ" end
|  7>  newAuxJGTO H "cc-PVTZ/JK" end
|  8>  newAuxCGTO H "cc-PVTZ/C" end
|  9> end
| 10> %cpcm
| 11>  SMD true
| 12>  SMDsolvent "dichloromethane"
| 13> end
| 14> %pal nprocs 4 end
| 15> * xyz 0 1
| 16> N          5.18490        2.63730       -4.83100
| 17> C          4.41990        2.18600       -4.10520
| 18> C          3.47960        1.62540       -3.21360
| 19> C          3.81050        0.48660       -2.47740
| 20> C          2.89070       -0.06950       -1.61400
| 21> C          1.61870        0.49270       -1.47470
| 22> C          0.61840       -0.03480       -0.57060
| 23> N         -0.23240        0.73970        0.07850
| 24> C         -0.98250       -0.03610        0.88210
| 25> C         -1.98970        0.53960        1.75660
| 26> C         -2.34920       -0.05530        2.96470
| 27> C         -3.31410        0.52360        3.76750
| 28> C         -3.92820        1.70400        3.38340
| 29> C         -3.56060        2.31420        2.19460
| 30> C         -2.59840        1.73970        1.38830
| 31> C         -0.61200       -1.37630        0.69960
| 32> C         -1.07960       -2.61750        1.16040
| 33> C         -0.51410       -3.76710        0.69320
| 34> C          0.51450       -3.70090       -0.27770
| 35> C          0.95240       -2.50220       -0.73580
| 36> N          0.42230       -1.34920       -0.24000
| 37> C          1.30890        1.65410       -2.19150
| 38> C          2.22270        2.21520       -3.05360
| 39> H          4.79400        0.05190       -2.58240
| 40> H          3.18170       -0.91920       -1.01440
| 41> H         -1.85040       -0.95500        3.29260
| 42> H         -3.58420        0.05460        4.70290
| 43> H         -4.68310        2.15140        4.01310
| 44> H         -4.02820        3.24160        1.89740
| 45> H         -2.29980        2.20590        0.46230
| 46> H         -1.89870       -2.63830        1.86010
| 47> H         -0.85840       -4.73030        1.03380
| 48> H          0.93860       -4.60940       -0.67300
| 49> H          1.69130       -2.40820       -1.51490
| 50> H          0.33660        2.09850       -2.05020
| 51> H          1.97830        3.10720       -3.61130
| 52> *
| 53>
| 54>
| 55> $new_job
| 56> ! m062x defgrid3 aug-cc-PVTZ RIJCOSX SP
| 57> %maxcore 4000
| 58> %basis
| 59>  AuxJ "aug-cc-PVTZ/JK"
| 60>  AuxC "aug-cc-PVTZ/C"
| 61>  newGTO H "cc-PVTZ" end
| 62>  newAuxJGTO H "cc-PVTZ/JK" end
| 63>  newAuxCGTO H "cc-PVTZ/C" end
| 64> end
| 65> %cpcm
| 66>  SMD true
| 67>  SMDsolvent "dichloromethane"
| 68> end
| 69> %pal nprocs 4 end
| 70> %tddft
| 71>  nroots 10
| 72>  maxdim 7
| 73> end
| 74> * xyzfile 0 1
| 75>
| 76>                          ****END OF INPUT****
 Total Charge           Charge          ....    0
 Multiplicity           Mult            ....    1
 Number of Electrons    NEL             ....  154
FINAL SINGLE POINT ENERGY      -934.199218395363
FINAL SINGLE POINT ENERGY      -934.200561033571
FINAL SINGLE POINT ENERGY      -934.200833080775
FINAL SINGLE POINT ENERGY      -934.200904235094
FINAL SINGLE POINT ENERGY      -934.200925487269
FINAL SINGLE POINT ENERGY      -934.200931735283
                    ***********************HURRAY********************
FINAL SINGLE POINT ENERGY      -934.200933980504

CARTESIAN COORDINATES (ANGSTROEM)
---------------------------------
  N      5.262960    2.552906   -4.872265
  C      4.488843    2.120642   -4.142536
  C      3.521360    1.579814   -3.234916
  C      3.847678    0.470048   -2.458201
  C      2.909176   -0.054816   -1.588443
  C      1.637570    0.515568   -1.489642
  C      0.623694    0.015773   -0.560583
  N     -0.209878    0.790194    0.106297
  C     -0.973442    0.000234    0.903153
  C     -2.000468    0.557864    1.787551
  C     -2.347238   -0.060675    2.991012
  C     -3.330690    0.481532    3.806524
  C     -3.976049    1.655646    3.440563
  C     -3.625471    2.287793    2.252824
  C     -2.648476    1.744620    1.433352
  C     -0.618688   -1.331322    0.703074
  C     -1.082761   -2.590726    1.158541
  C     -0.526095   -3.727978    0.670225
  C      0.505324   -3.655140   -0.313602
  C      0.946166   -2.461255   -0.760570
  N      0.408952   -1.300837   -0.241214
  C      1.331267    1.640540   -2.262156
  C      2.262117    2.172493   -3.131503
  H      4.833703    0.032436   -2.528832
  H      3.187721   -0.889676   -0.960973
  H     -1.826947   -0.954438    3.308086
  H     -3.584256   -0.009846    4.736758
  H     -4.741243    2.078610    4.077734
  H     -4.119959    3.205173    1.961098
  H     -2.383815    2.232950    0.504760
  H     -1.889936   -2.623792    1.874952
  H     -0.874550   -4.694334    1.005729
  H      0.932699   -4.555111   -0.730040
  H      1.688835   -2.350692   -1.533230
  H      0.351332    2.089223   -2.178954
  H      2.020960    3.036479   -3.734771

 Multiplicity           Mult            ....    1
 Number of Electrons    NEL             ....  154
 Basis Dimension        Dim             .... 1240

ORBITAL ENERGIES
----------------

  NO   OCC          E(Eh)            E(eV)
   0   2.0000     -14.838565      -403.7779
   1   2.0000     -14.760781      -401.6613
   2   2.0000     -14.750778      -401.3891
   3   2.0000     -10.612116      -288.7704
   4   2.0000     -10.596699      -288.3509
   5   2.0000     -10.591744      -288.2160
   6   2.0000     -10.591346      -288.2052
   7   2.0000     -10.590587      -288.1845
   8   2.0000     -10.580335      -287.9056
   9   2.0000     -10.571043      -287.6527
  10   2.0000     -10.568034      -287.5708
  11   2.0000     -10.566919      -287.5405
  12   2.0000     -10.561434      -287.3912
  13   2.0000     -10.560075      -287.3543
  14   2.0000     -10.558547      -287.3127
  15   2.0000     -10.556937      -287.2689
  16   2.0000     -10.555751      -287.2366
  17   2.0000     -10.554781      -287.2102
  18   2.0000     -10.542660      -286.8804
  19   2.0000     -10.541597      -286.8514
  20   2.0000     -10.541372      -286.8453
  21   2.0000     -10.540211      -286.8137
  22   2.0000     -10.539615      -286.7975
  23   2.0000      -1.163444       -31.6589
  24   2.0000      -1.035094       -28.1663
  25   2.0000      -1.033645       -28.1269
  26   2.0000      -0.992336       -27.0028
  27   2.0000      -0.968242       -26.3472
  28   2.0000      -0.935209       -25.4483
  29   2.0000      -0.906198       -24.6589
  30   2.0000      -0.880215       -23.9519
  31   2.0000      -0.869182       -23.6516
  32   2.0000      -0.863798       -23.5051
  33   2.0000      -0.845049       -22.9950
  34   2.0000      -0.812000       -22.0957
  35   2.0000      -0.753016       -20.4906
  36   2.0000      -0.744132       -20.2489
  37   2.0000      -0.729287       -19.8449
  38   2.0000      -0.711069       -19.3492
  39   2.0000      -0.697126       -18.9698
  40   2.0000      -0.676700       -18.4140
  41   2.0000      -0.663985       -18.0679
  42   2.0000      -0.641964       -17.4687
  43   2.0000      -0.618876       -16.8405
  44   2.0000      -0.591983       -16.1087
  45   2.0000      -0.577579       -15.7167
  46   2.0000      -0.564864       -15.3707
  47   2.0000      -0.562362       -15.3026
  48   2.0000      -0.547661       -14.9026
  49   2.0000      -0.545293       -14.8382
  50   2.0000      -0.534508       -14.5447
  51   2.0000      -0.526515       -14.3272
  52   2.0000      -0.518342       -14.1048
  53   2.0000      -0.508869       -13.8470
  54   2.0000      -0.506077       -13.7711
  55   2.0000      -0.489137       -13.3101
  56   2.0000      -0.485835       -13.2202
  57   2.0000      -0.485111       -13.2006
  58   2.0000      -0.469182       -12.7671
  59   2.0000      -0.455946       -12.4069
  60   2.0000      -0.451409       -12.2835
  61   2.0000      -0.445853       -12.1323
  62   2.0000      -0.441165       -12.0047
  63   2.0000      -0.434105       -11.8126
  64   2.0000      -0.427331       -11.6283
  65   2.0000      -0.420676       -11.4472
  66   2.0000      -0.408905       -11.1269
  67   2.0000      -0.405316       -11.0292
  68   2.0000      -0.400246       -10.8912
  69   2.0000      -0.387166       -10.5353
  70   2.0000      -0.363366        -9.8877
  71   2.0000      -0.342956        -9.3323
  72   2.0000      -0.331144        -9.0109
  73   2.0000      -0.324169        -8.8211
  74   2.0000      -0.313951        -8.5430
  75   2.0000      -0.311677        -8.4812
  76   2.0000      -0.238592        -6.4924
  77   0.0000      -0.039455        -1.0736
  78   0.0000      -0.019454        -0.5294
  79   0.0000      -0.001747        -0.0475
  80   0.0000       0.003039         0.0827
  81   0.0000       0.005744         0.1563

MULLIKEN ATOMIC CHARGES
-----------------------
   0 N :   -0.992681
   1 C :    0.651598
   2 C :    1.506571
   3 C :   -1.168246
   4 C :   -0.550015
   5 C :    2.991416
   6 C :   -0.610007
   7 N :   -1.168559
   8 C :    0.409507
   9 C :    2.559656
  10 C :   -0.424386
  11 C :   -0.576201
  12 C :   -0.168737
  13 C :   -0.655221
  14 C :   -0.406724
  15 C :    0.279687
  16 C :   -0.489010
  17 C :   -0.803715
  18 C :   -0.352686
  19 C :   -0.037718
  20 N :    0.592707
  21 C :   -0.606815
  22 C :   -1.176527
  23 H :    0.059588
  24 H :    0.009982
  25 H :   -0.000201
  26 H :    0.118243
  27 H :    0.122764
  28 H :    0.126006
  29 H :    0.015039
  30 H :    0.069598
  31 H :    0.163767
  32 H :    0.082201
  33 H :    0.355039
  34 H :    0.013521
  35 H :    0.060557
Sum of atomic charges:    0.0000000

LOEWDIN ATOMIC CHARGES
----------------------
   0 N :    0.233609
   1 C :   -0.297513
   2 C :   -0.384047
   3 C :   -0.011666
   4 C :   -0.012229
   5 C :   -0.293040
   6 C :   -0.438008
   7 N :    0.386686
   8 C :   -0.353172
   9 C :   -0.331139
  10 C :   -0.060539
  11 C :   -0.132353
  12 C :   -0.149502
  13 C :   -0.131707
  14 C :   -0.056097
  15 C :   -0.295528
  16 C :   -0.009122
  17 C :   -0.104329
  18 C :   -0.096203
  19 C :   -0.074430
  20 N :    0.157364
  21 C :    0.000706
  22 C :   -0.008520
  23 H :    0.198100
  24 H :    0.204101
  25 H :    0.199524
  26 H :    0.170683
  27 H :    0.168216
  28 H :    0.170697
  29 H :    0.197228
  30 H :    0.198076
  31 H :    0.173256
  32 H :    0.174666
  33 H :    0.204349
  34 H :    0.204038
  35 H :    0.197845

  Mayer bond orders larger than 0.100000
B(  0-N ,  1-C ) :   0.9493 B(  0-N ,  2-C ) :   0.5196 B(  0-N , 22-C ) :   0.1241
B(  1-C ,  2-C ) :   0.4737 B(  1-C ,  3-C ) :   0.2249 B(  1-C ,  5-C ) :   0.1599
B(  1-C , 22-C ) :   0.1959 B(  2-C ,  3-C ) :   0.3181 B(  2-C ,  5-C ) :  -0.2537
B(  2-C , 21-C ) :   0.1374 B(  2-C , 22-C ) :   0.3190 B(  2-C , 23-H ) :  -0.2693
B(  2-C , 35-H ) :  -0.2563 B(  3-C ,  4-C ) :   1.4195 B(  3-C ,  5-C ) :  -0.3475
B(  3-C ,  6-C ) :   0.1808 B(  3-C , 22-C ) :   0.1371 B(  3-C , 23-H ) :   1.3494
B(  4-C ,  5-C ) :  -0.1493 B(  4-C ,  6-C ) :   0.3538 B(  4-C ,  7-N ) :   0.1165
B(  4-C , 18-C ) :  -0.1056 B(  4-C , 20-N ) :   0.1250 B(  4-C , 21-C ) :  -0.2024
B(  4-C , 23-H ) :  -0.1666 B(  4-C , 24-H ) :   1.4611 B(  5-C ,  6-C ) :  -0.7635
B(  5-C ,  7-N ) :  -0.2934 B(  5-C ,  8-C ) :   0.2843 B(  5-C , 15-C ) :  -0.1224
B(  5-C , 20-N ) :  -0.2494 B(  5-C , 22-C ) :  -0.2287 B(  5-C , 24-H ) :  -0.5058
B(  5-C , 34-H ) :  -0.4751 B(  6-C ,  7-N ) :   1.1476 B(  6-C ,  8-C ) :  -0.3508
B(  6-C , 15-C ) :   0.2021 B(  6-C , 16-C ) :   0.2761 B(  6-C , 19-C ) :  -0.6741
B(  6-C , 20-N ) :   1.2120 B(  6-C , 21-C ) :   0.2050 B(  6-C , 22-C ) :   0.1841
B(  6-C , 24-H ) :   0.1197 B(  7-N ,  9-C ) :  -0.2236 B(  7-N , 10-C ) :   0.1140
B(  7-N , 14-C ) :   0.1092 B(  7-N , 15-C ) :   0.7596 B(  7-N , 20-N ) :  -0.3649
B(  8-C , 11-C ) :   0.3221 B(  8-C , 13-C ) :   0.3123 B(  8-C , 14-C ) :   0.1701
B(  8-C , 15-C ) :   1.3137 B(  8-C , 16-C ) :  -0.5389 B(  8-C , 20-N ) :  -0.3267
B(  9-C , 10-C ) :   0.3761 B(  9-C , 11-C ) :  -0.3999 B(  9-C , 13-C ) :  -0.3815
B(  9-C , 14-C ) :   0.2708 B(  9-C , 15-C ) :  -0.2336 B(  9-C , 16-C ) :  -0.1354
B(  9-C , 20-N ) :   0.1661 B(  9-C , 25-H ) :  -0.4653 B(  9-C , 29-H ) :  -0.3812
B( 10-C , 11-C ) :   1.0773 B( 10-C , 14-C ) :  -0.1805 B( 10-C , 25-H ) :   1.4154
B( 10-C , 26-H ) :  -0.1057 B( 11-C , 12-C ) :   1.1373 B( 11-C , 13-C ) :   0.1212
B( 11-C , 15-C ) :  -0.1314 B( 11-C , 25-H ) :  -0.1118 B( 11-C , 26-H ) :   1.1280
B( 12-C , 13-C ) :   1.1182 B( 12-C , 27-H ) :   1.0796 B( 13-C , 14-C ) :   0.9954
B( 13-C , 28-H ) :   1.1125 B( 14-C , 15-C ) :   0.2047 B( 14-C , 28-H ) :  -0.1190
B( 14-C , 29-H ) :   1.3618 B( 15-C , 16-C ) :   0.2284 B( 15-C , 17-C ) :   0.1657
B( 15-C , 19-C ) :   0.1176 B( 15-C , 20-N ) :   0.3708 B( 15-C , 30-H ) :  -0.3622
B( 16-C , 17-C ) :   1.3398 B( 16-C , 19-C ) :  -0.3514 B( 16-C , 20-N ) :  -0.1861
B( 16-C , 30-H ) :   1.3188 B( 17-C , 18-C ) :   1.1066 B( 17-C , 19-C ) :   0.2212
B( 17-C , 20-N ) :  -0.2428 B( 17-C , 31-H ) :   1.0534 B( 18-C , 19-C ) :   0.7572
B( 18-C , 20-N ) :  -0.3222 B( 18-C , 32-H ) :   1.2570 B( 19-C , 20-N ) :   1.3946
B( 19-C , 32-H ) :  -0.2241 B( 19-C , 33-H ) :   0.8663 B( 21-C , 22-C ) :   1.3113
B( 21-C , 34-H ) :   1.4881 B( 21-C , 35-H ) :  -0.1735 B( 22-C , 35-H ) :   1.3499

-----------------------------------------------------------------------------
         ABSORPTION SPECTRUM VIA TRANSITION ELECTRIC DIPOLE MOMENTS
-----------------------------------------------------------------------------
State   Energy    Wavelength  fosc         T2        TX        TY        TZ
        (cm-1)      (nm)                 (au**2)    (au)      (au)      (au)
-----------------------------------------------------------------------------
   1   29545.3    338.5   0.708740019   7.89723  -1.75385  -1.47303   1.62832
   2   30919.7    323.4   0.327148869   3.48325   1.19949  -0.94033  -1.07716
   3   36979.5    270.4   0.106907968   0.95175   0.57631  -0.67397  -0.40668
   4   37077.4    269.7   0.375529749   3.33435  -0.94327   1.32305   0.83315
   5   38702.2    258.4   0.021766137   0.18515  -0.20185   0.37379   0.06847
   6   40031.9    249.8   0.018091621   0.14878  -0.03533   0.34199  -0.17486
   7   42739.1    234.0   0.006736825   0.05189   0.12012   0.05615   0.18523
   8   42823.5    233.5   0.005551640   0.04268   0.02319  -0.20508   0.00915
   9   43299.8    230.9   0.012467326   0.09479   0.07299   0.01033  -0.29893
  10   43917.9    227.7   0.076683630   0.57483   0.36113  -0.62541   0.23081

FINAL SINGLE POINT ENERGY      -934.066316013177

DIPOLE MOMENT
-------------
                                X             Y             Z
Electronic contribution:      8.17004       2.06552      -7.28393
Nuclear contribution   :     -9.34477      -4.89822       8.46936
                        -----------------------------------------
Total Dipole Moment    :     -1.17474      -2.83270       1.18544
                        -----------------------------------------
Magnitude (a.u.)       :      3.28777
Magnitude (Debye)      :      8.35686

Rotational constants in cm-1:     0.016144     0.004592     0.003657
Rotational constants in MHz :   483.975061   137.657753   109.640190

                             ****ORCA TERMINATED NORMALLY****
TOTAL RUN TIME: 0 days 7 hours 45 minutes 26 seconds 690 msec
