                         Program Version 5.0.2 -  RELEASE  -
|  1> ! pbe0 d3bj aug-cc-PVTZ RIJCOSX Opt
|  2> %maxcore 4000
|  3> %basis
|  4>  AuxJ "aug-cc-PVTZ/JK"
|  5>  AuxC "aug-cc-PVTZ/C"
|  6>  newGTO H "cc-PVTZ" end
|  7>  newAuxJGTO H "cc-PVTZ/JK" end
|  8>  newAuxCGTO H "cc-PVTZ/C" end
|  9> end
| 10> %cpcm
| 11>  SMD true
| 12>  SMDsolvent "dichloromethane"
| 13> end
| 14> %pal nprocs 4 end
| 15> * xyz 0 1
| 16> N          5.18490        2.63730       -4.83100
| 17> C          4.41990        2.18600       -4.10520
| 18> C          3.47960        1.62540       -3.21360
| 19> C          3.81050        0.48660       -2.47740
| 20> C          2.89070       -0.06950       -1.61400
| 21> C          1.61870        0.49270       -1.47470
| 22> C          0.61840       -0.03480       -0.57060
| 23> N         -0.23240        0.73970        0.07850
| 24> C         -0.98250       -0.03610        0.88210
| 25> C         -1.98970        0.53960        1.75660
| 26> C         -2.34920       -0.05530        2.96470
| 27> C         -3.31410        0.52360        3.76750
| 28> C         -3.92820        1.70400        3.38340
| 29> C         -3.56060        2.31420        2.19460
| 30> C         -2.59840        1.73970        1.38830
| 31> C         -0.61200       -1.37630        0.69960
| 32> C         -1.07960       -2.61750        1.16040
| 33> C         -0.51410       -3.76710        0.69320
| 34> C          0.51450       -3.70090       -0.27770
| 35> C          0.95240       -2.50220       -0.73580
| 36> N          0.42230       -1.34920       -0.24000
| 37> C          1.30890        1.65410       -2.19150
| 38> C          2.22270        2.21520       -3.05360
| 39> H          4.79400        0.05190       -2.58240
| 40> H          3.18170       -0.91920       -1.01440
| 41> H         -1.85040       -0.95500        3.29260
| 42> H         -3.58420        0.05460        4.70290
| 43> H         -4.68310        2.15140        4.01310
| 44> H         -4.02820        3.24160        1.89740
| 45> H         -2.29980        2.20590        0.46230
| 46> H         -1.89870       -2.63830        1.86010
| 47> H         -0.85840       -4.73030        1.03380
| 48> H          0.93860       -4.60940       -0.67300
| 49> H          1.69130       -2.40820       -1.51490
| 50> H          0.33660        2.09850       -2.05020
| 51> H          1.97830        3.10720       -3.61130
| 52> *
| 53>
| 54>
| 55> $new_job
| 56> ! b2gp-plyp aug-cc-PVTZ RIJCOSX SP
| 57> %maxcore 4000
| 58> %basis
| 59>  AuxJ "aug-cc-PVTZ/JK"
| 60>  AuxC "aug-cc-PVTZ/C"
| 61>  newGTO H "cc-PVTZ" end
| 62>  newAuxJGTO H "cc-PVTZ/JK" end
| 63>  newAuxCGTO H "cc-PVTZ/C" end
| 64> end
| 65> %cpcm
| 66>  SMD true
| 67>  SMDsolvent "dichloromethane"
| 68> end
| 69> %pal nprocs 4 end
| 70> %tddft
| 71>  nroots 10
| 72>  maxdim 7
| 73> end
| 74> * xyzfile 0 1
| 75>
| 76>                          ****END OF INPUT****
 Total Charge           Charge          ....    0
 Multiplicity           Mult            ....    1
 Number of Electrons    NEL             ....  154
Dispersion correction           -0.044886942
FINAL SINGLE POINT ENERGY      -933.500948172098
Dispersion correction            ... done
Dispersion correction           -0.044898311
FINAL SINGLE POINT ENERGY      -933.501759671716
Dispersion correction            ... done
Dispersion correction           -0.044862570
FINAL SINGLE POINT ENERGY      -933.501855651586
Dispersion correction            ... done
FINAL SINGLE POINT ENERGY      -933.501884294197
Dispersion correction            ... done
Dispersion correction           -0.044864368
FINAL SINGLE POINT ENERGY      -933.501891324340
Dispersion correction            ... done
                    ***********************HURRAY********************
Dispersion correction           -0.044863672
FINAL SINGLE POINT ENERGY      -933.501895627795

CARTESIAN COORDINATES (ANGSTROEM)
---------------------------------
  N      5.226341    2.590477   -4.879717
  C      4.455637    2.149240   -4.144673
  C      3.505492    1.600177   -3.239487
  C      3.814131    0.442587   -2.525685
  C      2.887939   -0.094888   -1.654712
  C      1.635905    0.504729   -1.483420
  C      0.632233   -0.002454   -0.562142
  N     -0.213993    0.771221    0.096409
  C     -0.975525   -0.010416    0.895706
  C     -2.001731    0.551448    1.768560
  C     -2.370792   -0.065063    2.967053
  C     -3.352655    0.487889    3.774385
  C     -3.977454    1.672027    3.408498
  C     -3.608645    2.301067    2.225666
  C     -2.632655    1.747958    1.414078
  C     -0.612458   -1.346990    0.709372
  C     -1.068216   -2.594869    1.176829
  C     -0.503025   -3.740773    0.705682
  C      0.523811   -3.672154   -0.270609
  C      0.960811   -2.477376   -0.730564
  N      0.419847   -1.319014   -0.231464
  C      1.348689    1.679047   -2.190926
  C      2.268143    2.223793   -3.060385
  H      4.783416   -0.023609   -2.646286
  H      3.167150   -0.965608   -1.077510
  H     -1.868810   -0.968774    3.287640
  H     -3.621438   -0.004187    4.701849
  H     -4.742949    2.104188    4.041821
  H     -4.089339    3.226767    1.931243
  H     -2.353745    2.235358    0.487964
  H     -1.877032   -2.624404    1.892864
  H     -0.847583   -4.705082    1.055421
  H      0.960873   -4.574393   -0.675980
  H      1.707801   -2.378046   -1.501282
  H      0.386400    2.154516   -2.055096
  H      2.033824    3.125507   -3.611304

 Multiplicity           Mult            ....    1
 Number of Electrons    NEL             ....  154
 Basis Dimension        Dim             .... 1240

ORBITAL ENERGIES
----------------

  NO   OCC          E(Eh)            E(eV)
   0   2.0000     -15.117438      -411.3664
   1   2.0000     -15.038636      -409.2221
   2   2.0000     -15.026926      -408.9034
   3   2.0000     -10.849003      -295.2164
   4   2.0000     -10.833005      -294.7811
   5   2.0000     -10.832616      -294.7705
   6   2.0000     -10.826948      -294.6162
   7   2.0000     -10.824837      -294.5588
   8   2.0000     -10.817472      -294.3584
   9   2.0000     -10.805384      -294.0294
  10   2.0000     -10.804656      -294.0096
  11   2.0000     -10.803357      -293.9743
  12   2.0000     -10.795718      -293.7664
  13   2.0000     -10.794944      -293.7454
  14   2.0000     -10.792672      -293.6835
  15   2.0000     -10.792076      -293.6673
  16   2.0000     -10.791649      -293.6557
  17   2.0000     -10.789507      -293.5974
  18   2.0000     -10.777704      -293.2762
  19   2.0000     -10.777010      -293.2574
  20   2.0000     -10.776677      -293.2483
  21   2.0000     -10.775054      -293.2041
  22   2.0000     -10.774794      -293.1970
  23   2.0000      -1.236571       -33.6488
  24   2.0000      -1.104309       -30.0498
  25   2.0000      -1.102132       -29.9905
  26   2.0000      -1.057959       -28.7885
  27   2.0000      -1.033220       -28.1154
  28   2.0000      -0.997888       -27.1539
  29   2.0000      -0.966829       -26.3087
  30   2.0000      -0.938984       -25.5510
  31   2.0000      -0.927091       -25.2274
  32   2.0000      -0.921791       -25.0832
  33   2.0000      -0.902491       -24.5580
  34   2.0000      -0.865899       -23.5623
  35   2.0000      -0.802408       -21.8346
  36   2.0000      -0.791806       -21.5461
  37   2.0000      -0.774573       -21.0772
  38   2.0000      -0.755631       -20.5618
  39   2.0000      -0.740474       -20.1493
  40   2.0000      -0.719439       -19.5769
  41   2.0000      -0.704099       -19.1595
  42   2.0000      -0.678691       -18.4681
  43   2.0000      -0.655147       -17.8274
  44   2.0000      -0.627088       -17.0639
  45   2.0000      -0.610948       -16.6247
  46   2.0000      -0.598561       -16.2877
  47   2.0000      -0.589486       -16.0407
  48   2.0000      -0.579770       -15.7763
  49   2.0000      -0.574476       -15.6323
  50   2.0000      -0.566620       -15.4185
  51   2.0000      -0.557522       -15.1709
  52   2.0000      -0.548627       -14.9289
  53   2.0000      -0.541459       -14.7339
  54   2.0000      -0.535473       -14.5710
  55   2.0000      -0.519077       -14.1248
  56   2.0000      -0.514874       -14.0104
  57   2.0000      -0.501898       -13.6573
  58   2.0000      -0.497733       -13.5440
  59   2.0000      -0.483376       -13.1533
  60   2.0000      -0.480020       -13.0620
  61   2.0000      -0.463288       -12.6067
  62   2.0000      -0.461179       -12.5493
  63   2.0000      -0.454332       -12.3630
  64   2.0000      -0.447548       -12.1784
  65   2.0000      -0.435375       -11.8472
  66   2.0000      -0.430835       -11.7236
  67   2.0000      -0.425468       -11.5776
  68   2.0000      -0.423704       -11.5296
  69   2.0000      -0.393463       -10.7067
  70   2.0000      -0.386594       -10.5198
  71   2.0000      -0.343943        -9.3592
  72   2.0000      -0.327835        -8.9209
  73   2.0000      -0.321788        -8.7563
  74   2.0000      -0.310148        -8.4396
  75   2.0000      -0.308025        -8.3818
  76   2.0000      -0.228364        -6.2141
  77   0.0000      -0.005475        -0.1490
  78   0.0000       0.017041         0.4637
  79   0.0000       0.024879         0.6770
  80   0.0000       0.029244         0.7958
  81   0.0000       0.032908         0.8955

MULLIKEN ATOMIC CHARGES
-----------------------
   0 N :   -0.818528
   1 C :    0.278339
   2 C :    1.686632
   3 C :   -1.141812
   4 C :   -0.675527
   5 C :    2.296002
   6 C :   -0.255659
   7 N :   -1.182627
   8 C :    0.506153
   9 C :    2.028430
  10 C :   -0.566986
  11 C :   -0.602633
  12 C :   -0.220260
  13 C :   -0.596814
  14 C :   -0.401591
  15 C :    0.099802
  16 C :   -0.557074
  17 C :   -0.613809
  18 C :   -0.327999
  19 C :   -0.224041
  20 N :    0.439994
  21 C :   -0.525015
  22 C :   -1.033881
  23 H :    0.166112
  24 H :    0.108802
  25 H :    0.057922
  26 H :    0.225136
  27 H :    0.252848
  28 H :    0.236345
  29 H :    0.120734
  30 H :    0.124190
  31 H :    0.275485
  32 H :    0.205309
  33 H :    0.342543
  34 H :    0.121338
  35 H :    0.172142
Sum of atomic charges:    0.0000000

LOEWDIN ATOMIC CHARGES
----------------------
   0 N :    0.224516
   1 C :   -0.300346
   2 C :   -0.382204
   3 C :   -0.011619
   4 C :   -0.012192
   5 C :   -0.284486
   6 C :   -0.426553
   7 N :    0.378318
   8 C :   -0.349690
   9 C :   -0.326535
  10 C :   -0.059641
  11 C :   -0.135214
  12 C :   -0.151467
  13 C :   -0.134335
  14 C :   -0.055448
  15 C :   -0.291222
  16 C :   -0.009249
  17 C :   -0.104798
  18 C :   -0.099907
  19 C :   -0.077099
  20 N :    0.159082
  21 C :   -0.000193
  22 C :   -0.008039
  23 H :    0.198640
  24 H :    0.201748
  25 H :    0.197975
  26 H :    0.171598
  27 H :    0.168903
  28 H :    0.171580
  29 H :    0.196934
  30 H :    0.197479
  31 H :    0.174162
  32 H :    0.175219
  33 H :    0.202000
  34 H :    0.203876
  35 H :    0.198208

  Mayer bond orders larger than 0.100000
B(  0-N ,  1-C ) :   1.7998 B(  0-N ,  2-C ) :   0.1072 B(  0-N ,  3-C ) :   0.1178
B(  1-C ,  2-C ) :   0.2610 B(  1-C ,  3-C ) :   0.2770 B(  1-C ,  5-C ) :   0.1794
B(  1-C , 22-C ) :   0.2259 B(  2-C ,  3-C ) :   0.4023 B(  2-C ,  5-C ) :  -0.2469
B(  2-C , 21-C ) :   0.1468 B(  2-C , 22-C ) :   0.4675 B(  2-C , 23-H ) :  -0.1641
B(  2-C , 35-H ) :  -0.1325 B(  3-C ,  4-C ) :   1.4377 B(  3-C , 22-C ) :   0.1246
B(  3-C , 23-H ) :   1.1661 B(  4-C ,  5-C ) :   0.2590 B(  4-C ,  6-C ) :   0.2528
B(  4-C ,  7-N ) :   0.1477 B(  4-C , 20-N ) :   0.1241 B(  4-C , 21-C ) :  -0.2344
B(  4-C , 24-H ) :   1.2293 B(  5-C ,  6-C ) :  -0.4269 B(  5-C ,  7-N ) :  -0.1867
B(  5-C , 20-N ) :  -0.2453 B(  5-C , 21-C ) :   0.3926 B(  5-C , 24-H ) :  -0.2200
B(  5-C , 34-H ) :  -0.1911 B(  6-C ,  7-N ) :   1.0940 B(  6-C ,  8-C ) :  -0.2668
B(  6-C , 15-C ) :  -0.1343 B(  6-C , 16-C ) :   0.2496 B(  6-C , 19-C ) :  -0.5323
B(  6-C , 20-N ) :   1.0688 B(  6-C , 22-C ) :   0.1221 B(  7-N , 10-C ) :   0.1552
B(  7-N , 15-C ) :   0.5165 B(  7-N , 20-N ) :  -0.3704 B(  8-C ,  9-C ) :   0.1430
B(  8-C , 10-C ) :   0.1850 B(  8-C , 11-C ) :   0.1624 B(  8-C , 13-C ) :   0.1794
B(  8-C , 14-C ) :   0.1339 B(  8-C , 15-C ) :   1.5441 B(  8-C , 16-C ) :  -0.3641
B(  8-C , 20-N ) :  -0.3686 B(  9-C , 10-C ) :   0.5708 B(  9-C , 11-C ) :  -0.1610
B(  9-C , 13-C ) :  -0.1914 B(  9-C , 14-C ) :   0.5654 B(  9-C , 15-C ) :  -0.2025
B(  9-C , 20-N ) :   0.1504 B(  9-C , 25-H ) :  -0.2285 B(  9-C , 29-H ) :  -0.1453
B( 10-C , 11-C ) :   1.1803 B( 10-C , 14-C ) :  -0.2035 B( 10-C , 15-C ) :   0.1160
B( 10-C , 25-H ) :   1.2684 B( 11-C , 12-C ) :   1.2216 B( 11-C , 13-C ) :   0.1432
B( 11-C , 26-H ) :   1.0041 B( 12-C , 13-C ) :   1.1515 B( 12-C , 27-H ) :   0.9467
B( 13-C , 14-C ) :   1.0902 B( 13-C , 28-H ) :   0.9796 B( 14-C , 29-H ) :   1.1847
B( 15-C , 16-C ) :   0.8080 B( 15-C , 17-C ) :   0.2091 B( 15-C , 20-N ) :   0.4958
B( 15-C , 30-H ) :  -0.1514 B( 16-C , 17-C ) :   1.5044 B( 16-C , 19-C ) :  -0.1981
B( 16-C , 20-N ) :  -0.1760 B( 16-C , 30-H ) :   1.2189 B( 17-C , 18-C ) :   1.0885
B( 17-C , 19-C ) :   0.1716 B( 17-C , 20-N ) :  -0.1968 B( 17-C , 31-H ) :   0.9195
B( 18-C , 19-C ) :   1.1496 B( 18-C , 20-N ) :  -0.2725 B( 18-C , 32-H ) :   1.0897
B( 19-C , 20-N ) :   1.3754 B( 19-C , 32-H ) :  -0.1212 B( 19-C , 33-H ) :   0.8449
B( 21-C , 22-C ) :   1.2647 B( 21-C , 34-H ) :   1.2275 B( 22-C , 35-H ) :   1.1422

MP2 TOTAL ENERGY:     -933.611556049 Eh

-----------------------------------------------------------------------------
         ABSORPTION SPECTRUM VIA TRANSITION ELECTRIC DIPOLE MOMENTS
-----------------------------------------------------------------------------
State   Energy    Wavelength  fosc         T2        TX        TY        TZ
        (cm-1)      (nm)                 (au**2)    (au)      (au)      (au)
-----------------------------------------------------------------------------
   1   27259.4    366.8   0.713838908   8.62104   1.70219   1.76366  -1.61651
   2   29299.7    341.3   0.434035404   4.87683   1.49778  -0.93947  -1.32321
   3   36866.6    271.2   0.037858686   0.33807  -0.35480   0.38970   0.24559
   4   35508.0    281.6   0.374503753   3.47220  -0.99676   1.34443   0.81926
   5   36482.3    274.1   0.008460042   0.07634   0.18740  -0.16132  -0.12329
   6   38412.0    260.3   0.025113044   0.21523  -0.00451  -0.39984   0.23524
   7   41797.2    239.3   0.009583579   0.07548  -0.14179  -0.17525  -0.15706
   8   42257.4    236.6   0.014632307   0.11399   0.03715   0.18438  -0.28039
   9   43375.6    230.5   0.007699217   0.05844  -0.04451   0.13976   0.19215
  10   43071.1    232.2   0.062450248   0.47734   0.01366   0.58570  -0.36619

Dispersion correction           -0.030346937
FINAL SINGLE POINT ENERGY      -931.956415328032

DIPOLE MOMENT
-------------
                                X             Y             Z
Electronic contribution:      8.05496       1.98262      -7.21062
Nuclear contribution   :     -9.28114      -4.89093       8.51039
                        -----------------------------------------
Total Dipole Moment    :     -1.22618      -2.90831       1.29977
                        -----------------------------------------
Magnitude (a.u.)       :      3.41338
Magnitude (Debye)      :      8.67613

Rotational constants in cm-1:     0.016013     0.004624     0.003658
Rotational constants in MHz :   480.048236   138.633052   109.677431

                             ****ORCA TERMINATED NORMALLY****
TOTAL RUN TIME: 0 days 7 hours 59 minutes 49 seconds 394 msec
