                         Program Version 5.0.2 -  RELEASE  -
|  1> ! pbe0 d3bj aug-cc-PVTZ RIJCOSX Opt
|  2> %maxcore 4000
|  3> %basis
|  4>  AuxJ "aug-cc-PVTZ/JK"
|  5>  AuxC "aug-cc-PVTZ/C"
|  6>  newGTO H "cc-PVTZ" end
|  7>  newAuxJGTO H "cc-PVTZ/JK" end
|  8>  newAuxCGTO H "cc-PVTZ/C" end
|  9> end
| 10> %cpcm
| 11>  SMD true
| 12>  SMDsolvent "dichloromethane"
| 13> end
| 14> %pal nprocs 4 end
| 15> * xyz 0 1
| 16> N          5.18490        2.63730       -4.83100
| 17> C          4.41990        2.18600       -4.10520
| 18> C          3.47960        1.62540       -3.21360
| 19> C          3.81050        0.48660       -2.47740
| 20> C          2.89070       -0.06950       -1.61400
| 21> C          1.61870        0.49270       -1.47470
| 22> C          0.61840       -0.03480       -0.57060
| 23> N         -0.23240        0.73970        0.07850
| 24> C         -0.98250       -0.03610        0.88210
| 25> C         -1.98970        0.53960        1.75660
| 26> C         -2.34920       -0.05530        2.96470
| 27> C         -3.31410        0.52360        3.76750
| 28> C         -3.92820        1.70400        3.38340
| 29> C         -3.56060        2.31420        2.19460
| 30> C         -2.59840        1.73970        1.38830
| 31> C         -0.61200       -1.37630        0.69960
| 32> C         -1.07960       -2.61750        1.16040
| 33> C         -0.51410       -3.76710        0.69320
| 34> C          0.51450       -3.70090       -0.27770
| 35> C          0.95240       -2.50220       -0.73580
| 36> N          0.42230       -1.34920       -0.24000
| 37> C          1.30890        1.65410       -2.19150
| 38> C          2.22270        2.21520       -3.05360
| 39> H          4.79400        0.05190       -2.58240
| 40> H          3.18170       -0.91920       -1.01440
| 41> H         -1.85040       -0.95500        3.29260
| 42> H         -3.58420        0.05460        4.70290
| 43> H         -4.68310        2.15140        4.01310
| 44> H         -4.02820        3.24160        1.89740
| 45> H         -2.29980        2.20590        0.46230
| 46> H         -1.89870       -2.63830        1.86010
| 47> H         -0.85840       -4.73030        1.03380
| 48> H          0.93860       -4.60940       -0.67300
| 49> H          1.69130       -2.40820       -1.51490
| 50> H          0.33660        2.09850       -2.05020
| 51> H          1.97830        3.10720       -3.61130
| 52> *
| 53>
| 54>
| 55> $new_job
| 56> ! b2plyp aug-cc-PVTZ RIJCOSX SP
| 57> %maxcore 4000
| 58> %basis
| 59>  AuxJ "aug-cc-PVTZ/JK"
| 60>  AuxC "aug-cc-PVTZ/C"
| 61>  newGTO H "cc-PVTZ" end
| 62>  newAuxJGTO H "cc-PVTZ/JK" end
| 63>  newAuxCGTO H "cc-PVTZ/C" end
| 64> end
| 65> %cpcm
| 66>  SMD true
| 67>  SMDsolvent "dichloromethane"
| 68> end
| 69> %pal nprocs 4 end
| 70> %tddft
| 71>  nroots 10
| 72>  maxdim 7
| 73> end
| 74> * xyzfile 0 1
| 75>
| 76>                          ****END OF INPUT****
 Total Charge           Charge          ....    0
 Multiplicity           Mult            ....    1
 Number of Electrons    NEL             ....  154
Dispersion correction           -0.044886942
FINAL SINGLE POINT ENERGY      -933.500948194008
Dispersion correction            ... done
Dispersion correction           -0.044898305
FINAL SINGLE POINT ENERGY      -933.501759814455
Dispersion correction            ... done
Dispersion correction           -0.044862493
FINAL SINGLE POINT ENERGY      -933.501857568940
Dispersion correction            ... done
FINAL SINGLE POINT ENERGY      -933.501884230681
Dispersion correction            ... done
Dispersion correction           -0.044864280
FINAL SINGLE POINT ENERGY      -933.501891327322
Dispersion correction            ... done
                    ***********************HURRAY********************
Dispersion correction           -0.044863637
FINAL SINGLE POINT ENERGY      -933.501895814105

CARTESIAN COORDINATES (ANGSTROEM)
---------------------------------
  N      5.226210    2.590477   -4.879797
  C      4.455527    2.149243   -4.144725
  C      3.505412    1.600184   -3.239506
  C      3.814170    0.442727   -2.525534
  C      2.888024   -0.094748   -1.654508
  C      1.635905    0.504731   -1.483359
  C      0.632238   -0.002475   -0.562082
  N     -0.214050    0.771169    0.096425
  C     -0.975579   -0.010491    0.895708
  C     -2.001774    0.551398    1.768566
  C     -2.370995   -0.065178    2.966979
  C     -3.352804    0.487865    3.774321
  C     -3.977376    1.672155    3.408529
  C     -3.608395    2.301267    2.225788
  C     -2.632466    1.748067    1.414187
  C     -0.612461   -1.347059    0.709380
  C     -1.068237   -2.594965    1.176742
  C     -0.503005   -3.740842    0.705569
  C      0.523909   -3.672170   -0.270638
  C      0.960931   -2.477364   -0.730504
  N      0.419903   -1.319035   -0.231402
  C      1.348557    1.678904   -2.191046
  C      2.267968    2.223659   -3.060547
  H      4.783522   -0.023357   -2.646045
  H      3.167292   -0.965381   -1.077198
  H     -1.869180   -0.969005    3.287497
  H     -3.621720   -0.004254    4.701725
  H     -4.742817    2.104391    4.041869
  H     -4.088902    3.227094    1.931454
  H     -2.353409    2.235509    0.488139
  H     -1.877118   -2.624540    1.892702
  H     -0.847586   -4.705176    1.055220
  H      0.961001   -4.574396   -0.676007
  H      1.707981   -2.377987   -1.501161
  H      0.386180    2.154230   -2.055325
  H      2.033544    3.125252   -3.611618

 Multiplicity           Mult            ....    1
 Number of Electrons    NEL             ....  154
 Basis Dimension        Dim             .... 1240

ORBITAL ENERGIES
----------------

  NO   OCC          E(Eh)            E(eV)
   0   2.0000     -14.928843      -406.2345
   1   2.0000     -14.849140      -404.0657
   2   2.0000     -14.837991      -403.7623
   3   2.0000     -10.687287      -290.8159
   4   2.0000     -10.672146      -290.4039
   5   2.0000     -10.671015      -290.3731
   6   2.0000     -10.666551      -290.2516
   7   2.0000     -10.664292      -290.1901
   8   2.0000     -10.656360      -289.9743
   9   2.0000     -10.645464      -289.6778
  10   2.0000     -10.643680      -289.6293
  11   2.0000     -10.642430      -289.5952
  12   2.0000     -10.635347      -289.4025
  13   2.0000     -10.635056      -289.3946
  14   2.0000     -10.632333      -289.3205
  15   2.0000     -10.631791      -289.3057
  16   2.0000     -10.631470      -289.2970
  17   2.0000     -10.629931      -289.2551
  18   2.0000     -10.617555      -288.9184
  19   2.0000     -10.616868      -288.8997
  20   2.0000     -10.616624      -288.8930
  21   2.0000     -10.615014      -288.8492
  22   2.0000     -10.614800      -288.8434
  23   2.0000      -1.184766       -32.2391
  24   2.0000      -1.054856       -28.7041
  25   2.0000      -1.053602       -28.6700
  26   2.0000      -1.010371       -27.4936
  27   2.0000      -0.986254       -26.8373
  28   2.0000      -0.952701       -25.9243
  29   2.0000      -0.922650       -25.1066
  30   2.0000      -0.895756       -24.3748
  31   2.0000      -0.883770       -24.0486
  32   2.0000      -0.878811       -23.9137
  33   2.0000      -0.859723       -23.3943
  34   2.0000      -0.825439       -22.4613
  35   2.0000      -0.765074       -20.8187
  36   2.0000      -0.755008       -20.5448
  37   2.0000      -0.738343       -20.0913
  38   2.0000      -0.719544       -19.5798
  39   2.0000      -0.705246       -19.1907
  40   2.0000      -0.684906       -18.6372
  41   2.0000      -0.670469       -18.2444
  42   2.0000      -0.646643       -17.5960
  43   2.0000      -0.623760       -16.9734
  44   2.0000      -0.596530       -16.2324
  45   2.0000      -0.581161       -15.8142
  46   2.0000      -0.569275       -15.4908
  47   2.0000      -0.560554       -15.2535
  48   2.0000      -0.550873       -14.9900
  49   2.0000      -0.546139       -14.8612
  50   2.0000      -0.538179       -14.6446
  51   2.0000      -0.528922       -14.3927
  52   2.0000      -0.520328       -14.1589
  53   2.0000      -0.513463       -13.9720
  54   2.0000      -0.507800       -13.8179
  55   2.0000      -0.491656       -13.3786
  56   2.0000      -0.487780       -13.2732
  57   2.0000      -0.474057       -12.8998
  58   2.0000      -0.471783       -12.8379
  59   2.0000      -0.457471       -12.4484
  60   2.0000      -0.452848       -12.3226
  61   2.0000      -0.439984       -11.9726
  62   2.0000      -0.436378       -11.8744
  63   2.0000      -0.429873       -11.6974
  64   2.0000      -0.424841       -11.5605
  65   2.0000      -0.410874       -11.1804
  66   2.0000      -0.407812       -11.0971
  67   2.0000      -0.401977       -10.9383
  68   2.0000      -0.401064       -10.9135
  69   2.0000      -0.373845       -10.1728
  70   2.0000      -0.360127        -9.7996
  71   2.0000      -0.327499        -8.9117
  72   2.0000      -0.312791        -8.5115
  73   2.0000      -0.306738        -8.3468
  74   2.0000      -0.295351        -8.0369
  75   2.0000      -0.293217        -7.9788
  76   2.0000      -0.217448        -5.9171
  77   0.0000      -0.021063        -0.5731
  78   0.0000       0.000750         0.0204
  79   0.0000       0.017819         0.4849
  80   0.0000       0.023192         0.6311
  81   0.0000       0.025239         0.6868

MULLIKEN ATOMIC CHARGES
-----------------------
   0 N :   -0.808466
   1 C :    0.293840
   2 C :    1.652909
   3 C :   -1.124863
   4 C :   -0.644580
   5 C :    2.311775
   6 C :   -0.246923
   7 N :   -1.180841
   8 C :    0.542478
   9 C :    2.024698
  10 C :   -0.541983
  11 C :   -0.583095
  12 C :   -0.216025
  13 C :   -0.579696
  14 C :   -0.423048
  15 C :    0.085509
  16 C :   -0.543711
  17 C :   -0.607129
  18 C :   -0.324461
  19 C :   -0.210801
  20 N :    0.423134
  21 C :   -0.532889
  22 C :   -1.031568
  23 H :    0.156628
  24 H :    0.094576
  25 H :    0.046401
  26 H :    0.217669
  27 H :    0.241124
  28 H :    0.228177
  29 H :    0.109600
  30 H :    0.110135
  31 H :    0.264104
  32 H :    0.194962
  33 H :    0.329616
  34 H :    0.111140
  35 H :    0.161607
Sum of atomic charges:   -0.0000000

LOEWDIN ATOMIC CHARGES
----------------------
   0 N :    0.225958
   1 C :   -0.300492
   2 C :   -0.383228
   3 C :   -0.012700
   4 C :   -0.012961
   5 C :   -0.284972
   6 C :   -0.426274
   7 N :    0.379708
   8 C :   -0.348276
   9 C :   -0.325765
  10 C :   -0.059727
  11 C :   -0.135054
  12 C :   -0.151408
  13 C :   -0.134141
  14 C :   -0.055808
  15 C :   -0.290188
  16 C :   -0.008896
  17 C :   -0.104637
  18 C :   -0.099246
  19 C :   -0.076507
  20 N :    0.160066
  21 C :   -0.001084
  22 C :   -0.009093
  23 H :    0.198177
  24 H :    0.201534
  25 H :    0.197776
  26 H :    0.171280
  27 H :    0.168607
  28 H :    0.171263
  29 H :    0.196698
  30 H :    0.197339
  31 H :    0.173810
  32 H :    0.175174
  33 H :    0.201687
  34 H :    0.203632
  35 H :    0.197749

  Mayer bond orders larger than 0.100000
B(  0-N ,  1-C ) :   1.7883 B(  0-N ,  2-C ) :   0.1150 B(  0-N ,  3-C ) :   0.1175
B(  1-C ,  2-C ) :   0.2667 B(  1-C ,  3-C ) :   0.2782 B(  1-C ,  5-C ) :   0.1723
B(  1-C , 22-C ) :   0.2358 B(  2-C ,  3-C ) :   0.4276 B(  2-C ,  5-C ) :  -0.2438
B(  2-C , 21-C ) :   0.1485 B(  2-C , 22-C ) :   0.4713 B(  2-C , 23-H ) :  -0.1564
B(  2-C , 35-H ) :  -0.1300 B(  3-C ,  4-C ) :   1.4208 B(  3-C , 22-C ) :   0.1275
B(  3-C , 23-H ) :   1.1570 B(  4-C ,  5-C ) :   0.2751 B(  4-C ,  6-C ) :   0.2670
B(  4-C ,  7-N ) :   0.1361 B(  4-C , 20-N ) :   0.1208 B(  4-C , 21-C ) :  -0.2548
B(  4-C , 24-H ) :   1.2275 B(  5-C ,  6-C ) :  -0.4914 B(  5-C ,  7-N ) :  -0.2079
B(  5-C , 20-N ) :  -0.2232 B(  5-C , 21-C ) :   0.3983 B(  5-C , 24-H ) :  -0.2171
B(  5-C , 34-H ) :  -0.1852 B(  6-C ,  7-N ) :   1.0819 B(  6-C ,  8-C ) :  -0.2821
B(  6-C , 15-C ) :  -0.1276 B(  6-C , 16-C ) :   0.2266 B(  6-C , 19-C ) :  -0.5156
B(  6-C , 20-N ) :   1.0462 B(  6-C , 22-C ) :   0.1077 B(  7-N , 10-C ) :   0.1500
B(  7-N , 15-C ) :   0.5532 B(  7-N , 20-N ) :  -0.3695 B(  8-C ,  9-C ) :   0.1201
B(  8-C , 10-C ) :   0.2119 B(  8-C , 11-C ) :   0.1504 B(  8-C , 13-C ) :   0.1582
B(  8-C , 14-C ) :   0.1751 B(  8-C , 15-C ) :   1.4871 B(  8-C , 16-C ) :  -0.3774
B(  8-C , 20-N ) :  -0.3518 B(  9-C , 10-C ) :   0.5744 B(  9-C , 11-C ) :  -0.1533
B(  9-C , 13-C ) :  -0.1724 B(  9-C , 14-C ) :   0.5641 B(  9-C , 15-C ) :  -0.2140
B(  9-C , 20-N ) :   0.1557 B(  9-C , 25-H ) :  -0.2200 B(  9-C , 29-H ) :  -0.1413
B( 10-C , 11-C ) :   1.1771 B( 10-C , 14-C ) :  -0.2129 B( 10-C , 15-C ) :   0.1067
B( 10-C , 25-H ) :   1.2572 B( 11-C , 12-C ) :   1.2237 B( 11-C , 13-C ) :   0.1363
B( 11-C , 26-H ) :   0.9975 B( 12-C , 13-C ) :   1.1616 B( 12-C , 27-H ) :   0.9439
B( 13-C , 14-C ) :   1.1119 B( 13-C , 28-H ) :   0.9723 B( 14-C , 29-H ) :   1.1808
B( 15-C , 16-C ) :   0.8708 B( 15-C , 17-C ) :   0.2041 B( 15-C , 20-N ) :   0.4707
B( 15-C , 30-H ) :  -0.1418 B( 16-C , 17-C ) :   1.4960 B( 16-C , 19-C ) :  -0.1866
B( 16-C , 20-N ) :  -0.1779 B( 16-C , 30-H ) :   1.2154 B( 17-C , 18-C ) :   1.1175
B( 17-C , 19-C ) :   0.1726 B( 17-C , 20-N ) :  -0.1971 B( 17-C , 31-H ) :   0.9172
B( 18-C , 19-C ) :   1.1455 B( 18-C , 20-N ) :  -0.2538 B( 18-C , 32-H ) :   1.0826
B( 19-C , 20-N ) :   1.3738 B( 19-C , 32-H ) :  -0.1165 B( 19-C , 33-H ) :   0.8455
B( 21-C , 22-C ) :   1.2665 B( 21-C , 34-H ) :   1.2196 B( 22-C , 35-H ) :   1.1367

MP2 TOTAL ENERGY:     -933.795478832 Eh

-----------------------------------------------------------------------------
         ABSORPTION SPECTRUM VIA TRANSITION ELECTRIC DIPOLE MOMENTS
-----------------------------------------------------------------------------
State   Energy    Wavelength  fosc         T2        TX        TY        TZ
        (cm-1)      (nm)                 (au**2)    (au)      (au)      (au)
-----------------------------------------------------------------------------
   1   25965.1    385.1   0.726667617   9.21342  -1.86413  -1.62828   1.75702
   2   28430.3    351.7   0.350957224   4.06395  -1.28537   1.07065   1.12494
   3   35167.7    284.4   0.175043703   1.63862   0.73793  -0.88704  -0.55429
   4   34368.9    291.0   0.233132564   2.23313   0.75471  -1.10896  -0.65859
   5   35599.0    280.9   0.021649271   0.20021   0.27017  -0.32722  -0.14193
   6   37106.2    269.5   0.023722652   0.21047  -0.02347   0.40518  -0.21390
   7   40672.3    245.9   0.007735368   0.06261  -0.09588  -0.15816  -0.16854
   8   41175.0    242.9   0.009027993   0.07218  -0.03363  -0.10726   0.24402
   9   42649.2    234.5   0.005625863   0.04343   0.03266  -0.16592  -0.12178
  10   41416.0    241.5   0.079504425   0.63197   0.06198  -0.66935   0.42438

Dispersion correction           -0.040309308
FINAL SINGLE POINT ENERGY      -932.480458701324

DIPOLE MOMENT
-------------
                                X             Y             Z
Electronic contribution:      8.03338       1.96638      -7.18956
Nuclear contribution   :     -9.28083      -4.89073       8.51026
                        -----------------------------------------
Total Dipole Moment    :     -1.24745      -2.92435       1.32070
                        -----------------------------------------
Magnitude (a.u.)       :      3.44270
Magnitude (Debye)      :      8.75066

Rotational constants in cm-1:     0.016012     0.004624     0.003658
Rotational constants in MHz :   480.034513   138.634674   109.677735

                             ****ORCA TERMINATED NORMALLY****
TOTAL RUN TIME: 0 days 12 hours 0 minutes 19 seconds 448 msec
