                         Program Version 5.0.2 -  RELEASE  -
|  1> ! pbe0 aug-cc-PVTZ RIJCOSX Opt
|  2> %maxcore 4000
|  3> %basis
|  4>  AuxJ "aug-cc-PVTZ/JK"
|  5>  AuxC "aug-cc-PVTZ/C"
|  6>  newGTO H "cc-PVTZ" end
|  7>  newAuxJGTO H "cc-PVTZ/JK" end
|  8>  newAuxCGTO H "cc-PVTZ/C" end
|  9> end
| 10> %cpcm
| 11>  SMD true
| 12>  SMDsolvent "dichloromethane"
| 13> end
| 14> %pal nprocs 4 end
| 15> * xyz 0 1
| 16> N          5.18490        2.63730       -4.83100
| 17> C          4.41990        2.18600       -4.10520
| 18> C          3.47960        1.62540       -3.21360
| 19> C          3.81050        0.48660       -2.47740
| 20> C          2.89070       -0.06950       -1.61400
| 21> C          1.61870        0.49270       -1.47470
| 22> C          0.61840       -0.03480       -0.57060
| 23> N         -0.23240        0.73970        0.07850
| 24> C         -0.98250       -0.03610        0.88210
| 25> C         -1.98970        0.53960        1.75660
| 26> C         -2.34920       -0.05530        2.96470
| 27> C         -3.31410        0.52360        3.76750
| 28> C         -3.92820        1.70400        3.38340
| 29> C         -3.56060        2.31420        2.19460
| 30> C         -2.59840        1.73970        1.38830
| 31> C         -0.61200       -1.37630        0.69960
| 32> C         -1.07960       -2.61750        1.16040
| 33> C         -0.51410       -3.76710        0.69320
| 34> C          0.51450       -3.70090       -0.27770
| 35> C          0.95240       -2.50220       -0.73580
| 36> N          0.42230       -1.34920       -0.24000
| 37> C          1.30890        1.65410       -2.19150
| 38> C          2.22270        2.21520       -3.05360
| 39> H          4.79400        0.05190       -2.58240
| 40> H          3.18170       -0.91920       -1.01440
| 41> H         -1.85040       -0.95500        3.29260
| 42> H         -3.58420        0.05460        4.70290
| 43> H         -4.68310        2.15140        4.01310
| 44> H         -4.02820        3.24160        1.89740
| 45> H         -2.29980        2.20590        0.46230
| 46> H         -1.89870       -2.63830        1.86010
| 47> H         -0.85840       -4.73030        1.03380
| 48> H          0.93860       -4.60940       -0.67300
| 49> H          1.69130       -2.40820       -1.51490
| 50> H          0.33660        2.09850       -2.05020
| 51> H          1.97830        3.10720       -3.61130
| 52> *
| 53>
| 54>
| 55> $new_job
| 56> ! pbe0 aug-cc-PVTZ RIJCOSX SP
| 57> %maxcore 4000
| 58> %basis
| 59>  AuxJ "aug-cc-PVTZ/JK"
| 60>  AuxC "aug-cc-PVTZ/C"
| 61>  newGTO H "cc-PVTZ" end
| 62>  newAuxJGTO H "cc-PVTZ/JK" end
| 63>  newAuxCGTO H "cc-PVTZ/C" end
| 64> end
| 65> %cpcm
| 66>  SMD true
| 67>  SMDsolvent "dichloromethane"
| 68> end
| 69> %pal nprocs 4 end
| 70> %tddft
| 71>  nroots 10
| 72>  maxdim 7
| 73> end
| 74> * xyzfile 0 1
| 75>
| 76>                          ****END OF INPUT****
 Total Charge           Charge          ....    0
 Multiplicity           Mult            ....    1
 Number of Electrons    NEL             ....  154
FINAL SINGLE POINT ENERGY      -933.456061251792
FINAL SINGLE POINT ENERGY      -933.456926700939
FINAL SINGLE POINT ENERGY      -933.457027605669
FINAL SINGLE POINT ENERGY      -933.457055742754
FINAL SINGLE POINT ENERGY      -933.457063322772
                    ***********************HURRAY********************
FINAL SINGLE POINT ENERGY      -933.457064988420

CARTESIAN COORDINATES (ANGSTROEM)
---------------------------------
  N      5.228001    2.611831   -4.869143
  C      4.457059    2.165274   -4.137366
  C      3.506332    1.609371   -3.235847
  C      3.817167    0.450834   -2.524119
  C      2.890725   -0.093257   -1.656714
  C      1.635352    0.500310   -1.485036
  C      0.630646   -0.011215   -0.563728
  N     -0.214030    0.763119    0.094798
  C     -0.975462   -0.017363    0.893648
  C     -2.001386    0.548852    1.767535
  C     -2.366985   -0.058633    2.972225
  C     -3.345915    0.500280    3.779815
  C     -3.972329    1.681961    3.408445
  C     -3.607898    2.302282    2.219567
  C     -2.634701    1.743229    1.408098
  C     -0.613520   -1.354121    0.706458
  C     -1.070834   -2.602031    1.175012
  C     -0.507853   -3.749242    0.704361
  C      0.519375   -3.682330   -0.271882
  C      0.957871   -2.487869   -0.731827
  N      0.417814   -1.327691   -0.234068
  C      1.346030    1.675372   -2.191349
  C      2.265309    2.226407   -3.057701
  H      4.788584   -0.011818   -2.643172
  H      3.173401   -0.965323   -1.082755
  H     -1.864816   -0.960552    3.298462
  H     -3.610900    0.014479    4.711912
  H     -4.735356    2.118745    4.041904
  H     -4.089646    3.226032    1.920040
  H     -2.360623    2.225689    0.477753
  H     -1.879014   -2.630560    1.892174
  H     -0.853756   -4.713027    1.054854
  H      0.956048   -4.585277   -0.676637
  H      1.706546   -2.390612   -1.501500
  H      0.381880    2.148108   -2.057812
  H      2.027285    3.128646   -3.606603

 Multiplicity           Mult            ....    1
 Number of Electrons    NEL             ....  154
 Basis Dimension        Dim             .... 1240

ORBITAL ENERGIES
----------------

  NO   OCC          E(Eh)            E(eV)
   0   2.0000     -14.479280      -394.0013
   1   2.0000     -14.391581      -391.6148
   2   2.0000     -14.386388      -391.4735
   3   2.0000     -10.295265      -280.1484
   4   2.0000     -10.281167      -279.7648
   5   2.0000     -10.278053      -279.6800
   6   2.0000     -10.276214      -279.6300
   7   2.0000     -10.275111      -279.6000
   8   2.0000     -10.266835      -279.3748
   9   2.0000     -10.258133      -279.1380
  10   2.0000     -10.252903      -278.9957
  11   2.0000     -10.251746      -278.9642
  12   2.0000     -10.246662      -278.8259
  13   2.0000     -10.246339      -278.8171
  14   2.0000     -10.244161      -278.7578
  15   2.0000     -10.243257      -278.7332
  16   2.0000     -10.242605      -278.7155
  17   2.0000     -10.241999      -278.6990
  18   2.0000     -10.228851      -278.3412
  19   2.0000     -10.227937      -278.3163
  20   2.0000     -10.227696      -278.3098
  21   2.0000     -10.226554      -278.2787
  22   2.0000     -10.226154      -278.2678
  23   2.0000      -1.079338       -29.3703
  24   2.0000      -0.955432       -25.9986
  25   2.0000      -0.949082       -25.8258
  26   2.0000      -0.911995       -24.8166
  27   2.0000      -0.889507       -24.2047
  28   2.0000      -0.859782       -23.3959
  29   2.0000      -0.831743       -22.6329
  30   2.0000      -0.806695       -21.9513
  31   2.0000      -0.794138       -21.6096
  32   2.0000      -0.790187       -21.5021
  33   2.0000      -0.771138       -20.9837
  34   2.0000      -0.742616       -20.2076
  35   2.0000      -0.689030       -18.7495
  36   2.0000      -0.679937       -18.5020
  37   2.0000      -0.664824       -18.0908
  38   2.0000      -0.645389       -17.5619
  39   2.0000      -0.633516       -17.2388
  40   2.0000      -0.614431       -16.7195
  41   2.0000      -0.602150       -16.3853
  42   2.0000      -0.581431       -15.8215
  43   2.0000      -0.560327       -15.2473
  44   2.0000      -0.534458       -14.5433
  45   2.0000      -0.521118       -14.1803
  46   2.0000      -0.509691       -13.8694
  47   2.0000      -0.503763       -13.7081
  48   2.0000      -0.492293       -13.3960
  49   2.0000      -0.489519       -13.3205
  50   2.0000      -0.479529       -13.0487
  51   2.0000      -0.470089       -12.7918
  52   2.0000      -0.461626       -12.5615
  53   2.0000      -0.456800       -12.4302
  54   2.0000      -0.449843       -12.2409
  55   2.0000      -0.435523       -11.8512
  56   2.0000      -0.431123       -11.7314
  57   2.0000      -0.428039       -11.6475
  58   2.0000      -0.412246       -11.2178
  59   2.0000      -0.403860       -10.9896
  60   2.0000      -0.397657       -10.8208
  61   2.0000      -0.392796       -10.6885
  62   2.0000      -0.387136       -10.5345
  63   2.0000      -0.382269       -10.4021
  64   2.0000      -0.377532       -10.2732
  65   2.0000      -0.367770       -10.0075
  66   2.0000      -0.359006        -9.7691
  67   2.0000      -0.355626        -9.6771
  68   2.0000      -0.351256        -9.5582
  69   2.0000      -0.339258        -9.2317
  70   2.0000      -0.307313        -8.3624
  71   2.0000      -0.300153        -8.1676
  72   2.0000      -0.288096        -7.8395
  73   2.0000      -0.282428        -7.6852
  74   2.0000      -0.271796        -7.3960
  75   2.0000      -0.269458        -7.3323
  76   2.0000      -0.203549        -5.5389
  77   0.0000      -0.067013        -1.8235
  78   0.0000      -0.047557        -1.2941
  79   0.0000      -0.024955        -0.6791
  80   0.0000      -0.021195        -0.5768
  81   0.0000      -0.010420        -0.2836

MULLIKEN ATOMIC CHARGES
-----------------------
   0 N :   -0.769839
   1 C :    0.393355
   2 C :    1.321814
   3 C :   -1.000094
   4 C :   -0.638141
   5 C :    2.002599
   6 C :   -0.024373
   7 N :   -1.155114
   8 C :    0.799412
   9 C :    1.740026
  10 C :   -0.555819
  11 C :   -0.516107
  12 C :   -0.264098
  13 C :   -0.521535
  14 C :   -0.514229
  15 C :   -0.093592
  16 C :   -0.583898
  17 C :   -0.529279
  18 C :   -0.316263
  19 C :   -0.237219
  20 N :    0.302079
  21 C :   -0.586766
  22 C :   -0.945023
  23 H :    0.198142
  24 H :    0.144957
  25 H :    0.111721
  26 H :    0.242303
  27 H :    0.254323
  28 H :    0.252938
  29 H :    0.142753
  30 H :    0.161724
  31 H :    0.275318
  32 H :    0.221788
  33 H :    0.337565
  34 H :    0.148678
  35 H :    0.199895
Sum of atomic charges:   -0.0000000

LOEWDIN ATOMIC CHARGES
----------------------
   0 N :    0.232069
   1 C :   -0.301617
   2 C :   -0.387857
   3 C :   -0.017124
   4 C :   -0.016370
   5 C :   -0.288423
   6 C :   -0.429585
   7 N :    0.386149
   8 C :   -0.348432
   9 C :   -0.326317
  10 C :   -0.061846
  11 C :   -0.135938
  12 C :   -0.152079
  13 C :   -0.134712
  14 C :   -0.058606
  15 C :   -0.292680
  16 C :   -0.008584
  17 C :   -0.105002
  18 C :   -0.098245
  19 C :   -0.075818
  20 N :    0.163434
  21 C :   -0.005326
  22 C :   -0.013192
  23 H :    0.199396
  24 H :    0.203209
  25 H :    0.199519
  26 H :    0.172775
  27 H :    0.170147
  28 H :    0.172766
  29 H :    0.198380
  30 H :    0.199471
  31 H :    0.175382
  32 H :    0.177445
  33 H :    0.203226
  34 H :    0.205390
  35 H :    0.198995

  Mayer bond orders larger than 0.100000
B(  0-N ,  1-C ) :   1.8134 B(  0-N ,  3-C ) :   0.1159 B(  1-C ,  2-C ) :   0.4738
B(  1-C ,  3-C ) :   0.2046 B(  1-C ,  5-C ) :   0.1434 B(  1-C , 22-C ) :   0.1896
B(  2-C ,  3-C ) :   0.7053 B(  2-C ,  5-C ) :  -0.2605 B(  2-C , 21-C ) :   0.1333
B(  2-C , 22-C ) :   0.7025 B(  3-C ,  4-C ) :   1.4573 B(  3-C , 22-C ) :   0.1342
B(  3-C , 23-H ) :   1.0177 B(  4-C ,  5-C ) :   0.4862 B(  4-C ,  6-C ) :   0.1042
B(  4-C ,  7-N ) :   0.1184 B(  4-C , 20-N ) :   0.1265 B(  4-C , 21-C ) :  -0.2259
B(  4-C , 24-H ) :   1.0965 B(  5-C ,  6-C ) :  -0.3145 B(  5-C ,  7-N ) :  -0.3084
B(  5-C ,  8-C ) :   0.1651 B(  5-C , 20-N ) :  -0.1728 B(  5-C , 21-C ) :   0.6069
B(  5-C , 24-H ) :  -0.1080 B(  6-C ,  7-N ) :   1.1142 B(  6-C ,  8-C ) :  -0.3062
B(  6-C , 15-C ) :  -0.1153 B(  6-C , 16-C ) :   0.1336 B(  6-C , 19-C ) :  -0.4065
B(  6-C , 20-N ) :   1.0546 B(  7-N , 10-C ) :   0.1404 B(  7-N , 15-C ) :   0.6491
B(  7-N , 20-N ) :  -0.3741 B(  7-N , 21-C ) :   0.1071 B(  8-C ,  9-C ) :   0.2412
B(  8-C , 10-C ) :   0.1651 B(  8-C , 14-C ) :   0.1466 B(  8-C , 15-C ) :   1.3445
B(  8-C , 16-C ) :  -0.5020 B(  8-C , 20-N ) :  -0.2650 B(  9-C , 10-C ) :   0.6778
B(  9-C , 11-C ) :  -0.1080 B(  9-C , 12-C ) :  -0.1112 B(  9-C , 14-C ) :   0.6962
B(  9-C , 15-C ) :  -0.2594 B(  9-C , 20-N ) :   0.1367 B( 10-C , 11-C ) :   1.2701
B( 10-C , 14-C ) :  -0.1797 B( 10-C , 25-H ) :   1.1208 B( 11-C , 12-C ) :   1.3060
B( 11-C , 13-C ) :   0.1171 B( 11-C , 26-H ) :   0.9196 B( 12-C , 13-C ) :   1.2593
B( 12-C , 27-H ) :   0.8897 B( 13-C , 14-C ) :   1.2612 B( 13-C , 28-H ) :   0.8982
B( 14-C , 29-H ) :   1.0840 B( 15-C , 16-C ) :   1.2078 B( 15-C , 17-C ) :   0.1500
B( 15-C , 20-N ) :   0.4859 B( 16-C , 17-C ) :   1.5842 B( 16-C , 19-C ) :  -0.1116
B( 16-C , 20-N ) :  -0.1623 B( 16-C , 30-H ) :   1.0791 B( 17-C , 18-C ) :   1.2156
B( 17-C , 19-C ) :   0.1378 B( 17-C , 20-N ) :  -0.1654 B( 17-C , 31-H ) :   0.8663
B( 18-C , 19-C ) :   1.2559 B( 18-C , 20-N ) :  -0.1854 B( 18-C , 32-H ) :   0.9830
B( 19-C , 20-N ) :   1.4434 B( 19-C , 33-H ) :   0.8090 B( 21-C , 22-C ) :   1.3780
B( 21-C , 34-H ) :   1.0944 B( 22-C , 35-H ) :   1.0063

-----------------------------------------------------------------------------
         ABSORPTION SPECTRUM VIA TRANSITION ELECTRIC DIPOLE MOMENTS
-----------------------------------------------------------------------------
State   Energy    Wavelength  fosc         T2        TX        TY        TZ
        (cm-1)      (nm)                 (au**2)    (au)      (au)      (au)
-----------------------------------------------------------------------------
   1   25420.8    393.4   0.734995525   9.51855   2.00070   1.42311  -1.86828
   2   28274.3    353.7   0.246382772   2.86876   1.00193  -1.05355  -0.86887
   3   32776.0    305.1   0.001463704   0.01470   0.08421   0.06380   0.05951
   4   34084.7    293.4   0.433085120   4.18302  -1.08798   1.48801   0.88608
   5   35740.1    279.8   0.025531227   0.23517  -0.18116   0.44856  -0.03391
   6   38748.8    258.1   0.000771800   0.00656  -0.05131   0.03300  -0.05325
   7   39859.7    250.9   0.315543109   2.60616   0.92183   0.81468  -1.04531
   8   40379.4    247.7   0.044701844   0.36445  -0.40299  -0.36862   0.25725
   9   40952.8    244.2   0.022052308   0.17727  -0.05434   0.30756  -0.28237
  10   41207.8    242.7   0.047106483   0.37634   0.57597  -0.17871  -0.11252

FINAL SINGLE POINT ENERGY      -933.341239266683

DIPOLE MOMENT
-------------
                                X             Y             Z
Electronic contribution:      7.97492       1.91708      -7.13774
Nuclear contribution   :     -9.27963      -4.88809       8.50611
                        -----------------------------------------
Total Dipole Moment    :     -1.30471      -2.97101       1.36837
                        -----------------------------------------
Magnitude (a.u.)       :      3.52159
Magnitude (Debye)      :      8.95117

Rotational constants in cm-1:     0.015922     0.004626     0.003656
Rotational constants in MHz :   477.321966   138.692903   109.611618

                             ****ORCA TERMINATED NORMALLY****
TOTAL RUN TIME: 0 days 2 hours 52 minutes 4 seconds 151 msec
