                         Program Version 5.0.2 -  RELEASE  -
|  1> ! wb97x-d3 aug-cc-PVTZ RIJCOSX Opt
|  2> %maxcore 4000
|  3> %basis
|  4>  AuxJ "aug-cc-PVTZ/JK"
|  5>  AuxC "aug-cc-PVTZ/C"
|  6>  newGTO H "cc-PVTZ" end
|  7>  newAuxJGTO H "cc-PVTZ/JK" end
|  8>  newAuxCGTO H "cc-PVTZ/C" end
|  9> end
| 10> %cpcm
| 11>  SMD true
| 12>  SMDsolvent "dichloromethane"
| 13> end
| 14> %pal nprocs 4 end
| 15> * xyz 0 1
| 16> N          5.18490        2.63730       -4.83100
| 17> C          4.41990        2.18600       -4.10520
| 18> C          3.47960        1.62540       -3.21360
| 19> C          3.81050        0.48660       -2.47740
| 20> C          2.89070       -0.06950       -1.61400
| 21> C          1.61870        0.49270       -1.47470
| 22> C          0.61840       -0.03480       -0.57060
| 23> N         -0.23240        0.73970        0.07850
| 24> C         -0.98250       -0.03610        0.88210
| 25> C         -1.98970        0.53960        1.75660
| 26> C         -2.34920       -0.05530        2.96470
| 27> C         -3.31410        0.52360        3.76750
| 28> C         -3.92820        1.70400        3.38340
| 29> C         -3.56060        2.31420        2.19460
| 30> C         -2.59840        1.73970        1.38830
| 31> C         -0.61200       -1.37630        0.69960
| 32> C         -1.07960       -2.61750        1.16040
| 33> C         -0.51410       -3.76710        0.69320
| 34> C          0.51450       -3.70090       -0.27770
| 35> C          0.95240       -2.50220       -0.73580
| 36> N          0.42230       -1.34920       -0.24000
| 37> C          1.30890        1.65410       -2.19150
| 38> C          2.22270        2.21520       -3.05360
| 39> H          4.79400        0.05190       -2.58240
| 40> H          3.18170       -0.91920       -1.01440
| 41> H         -1.85040       -0.95500        3.29260
| 42> H         -3.58420        0.05460        4.70290
| 43> H         -4.68310        2.15140        4.01310
| 44> H         -4.02820        3.24160        1.89740
| 45> H         -2.29980        2.20590        0.46230
| 46> H         -1.89870       -2.63830        1.86010
| 47> H         -0.85840       -4.73030        1.03380
| 48> H          0.93860       -4.60940       -0.67300
| 49> H          1.69130       -2.40820       -1.51490
| 50> H          0.33660        2.09850       -2.05020
| 51> H          1.97830        3.10720       -3.61130
| 52> *
| 53>
| 54>
| 55> $new_job
| 56> ! wb97x-d3 aug-cc-PVTZ RIJCOSX SP
| 57> %maxcore 4000
| 58> %basis
| 59>  AuxJ "aug-cc-PVTZ/JK"
| 60>  AuxC "aug-cc-PVTZ/C"
| 61>  newGTO H "cc-PVTZ" end
| 62>  newAuxJGTO H "cc-PVTZ/JK" end
| 63>  newAuxCGTO H "cc-PVTZ/C" end
| 64> end
| 65> %cpcm
| 66>  SMD true
| 67>  SMDsolvent "dichloromethane"
| 68> end
| 69> %pal nprocs 4 end
| 70> %tddft
| 71>  nroots 10
| 72>  maxdim 7
| 73> end
| 74> * xyzfile 0 1
| 75>
| 76>                          ****END OF INPUT****
 Total Charge           Charge          ....    0
 Multiplicity           Mult            ....    1
 Number of Electrons    NEL             ....  154
Dispersion correction           -0.014981189
FINAL SINGLE POINT ENERGY      -934.274768119461
Dispersion correction            ... done
Dispersion correction           -0.014958969
FINAL SINGLE POINT ENERGY      -934.276415772348
Dispersion correction            ... done
Dispersion correction           -0.014977221
FINAL SINGLE POINT ENERGY      -934.276861237936
Dispersion correction            ... done
FINAL SINGLE POINT ENERGY      -934.276942571740
Dispersion correction           -0.015009796
FINAL SINGLE POINT ENERGY      -934.276971392156
Dispersion correction            ... done
Dispersion correction           -0.015015987
FINAL SINGLE POINT ENERGY      -934.276978213720
Dispersion correction            ... done
                    ***********************HURRAY********************
Dispersion correction           -0.015018341
FINAL SINGLE POINT ENERGY      -934.276977646670

CARTESIAN COORDINATES (ANGSTROEM)
---------------------------------
  N      5.325785    2.536250   -4.835481
  C      4.537615    2.110528   -4.115991
  C      3.555968    1.574627   -3.220263
  C      3.873577    0.478286   -2.424169
  C      2.923544   -0.040365   -1.565321
  C      1.648572    0.521485   -1.495492
  C      0.620858    0.023991   -0.574151
  N     -0.204849    0.804630    0.093236
  C     -0.984332    0.016739    0.878236
  C     -2.005998    0.569409    1.777868
  C     -2.260477   -0.013354    3.019339
  C     -3.233522    0.506366    3.858788
  C     -3.960717    1.624453    3.477367
  C     -3.704814    2.220906    2.249628
  C     -2.737709    1.698493    1.406038
  C     -0.646144   -1.311589    0.669368
  C     -1.122540   -2.567342    1.128325
  C     -0.574947   -3.707853    0.646165
  C      0.462173   -3.643666   -0.333472
  C      0.916920   -2.456996   -0.779552
  N      0.385732   -1.289384   -0.266707
  C      1.348225    1.629945   -2.289376
  C      2.291605    2.156949   -3.147356
  H      4.862082    0.042208   -2.470042
  H      3.195281   -0.867958   -0.924576
  H     -1.678405   -0.865829    3.345210
  H     -3.413321    0.041800    4.820175
  H     -4.718495    2.031589    4.134685
  H     -4.267111    3.094594    1.944095
  H     -2.550030    2.161037    0.445134
  H     -1.929277   -2.589653    1.846677
  H     -0.929987   -4.671249    0.985026
  H      0.885461   -4.549528   -0.742632
  H      1.672607   -2.354708   -1.541492
  H      0.364179    2.074431   -2.232797
  H      2.052890    3.010657   -3.766690

 Multiplicity           Mult            ....    1
 Number of Electrons    NEL             ....  154
 Basis Dimension        Dim             .... 1240

ORBITAL ENERGIES
----------------

  NO   OCC          E(Eh)            E(eV)
   0   2.0000     -14.513357      -394.9285
   1   2.0000     -14.431871      -392.7112
   2   2.0000     -14.423599      -392.4861
   3   2.0000     -10.348093      -281.5859
   4   2.0000     -10.333372      -281.1853
   5   2.0000     -10.332045      -281.1492
   6   2.0000     -10.330609      -281.1102
   7   2.0000     -10.327446      -281.0241
   8   2.0000     -10.320118      -280.8247
   9   2.0000     -10.307091      -280.4702
  10   2.0000     -10.306810      -280.4625
  11   2.0000     -10.305858      -280.4366
  12   2.0000     -10.299865      -280.2736
  13   2.0000     -10.298102      -280.2256
  14   2.0000     -10.297219      -280.2016
  15   2.0000     -10.296512      -280.1823
  16   2.0000     -10.294033      -280.1149
  17   2.0000     -10.293404      -280.0978
  18   2.0000     -10.281277      -279.7678
  19   2.0000     -10.280802      -279.7548
  20   2.0000     -10.280599      -279.7493
  21   2.0000     -10.279852      -279.7290
  22   2.0000     -10.279168      -279.7104
  23   2.0000      -1.167517       -31.7697
  24   2.0000      -1.042727       -28.3741
  25   2.0000      -1.041273       -28.3345
  26   2.0000      -1.006126       -27.3781
  27   2.0000      -0.982612       -26.7382
  28   2.0000      -0.950440       -25.8628
  29   2.0000      -0.923537       -25.1307
  30   2.0000      -0.897839       -24.4314
  31   2.0000      -0.887589       -24.1525
  32   2.0000      -0.882159       -24.0048
  33   2.0000      -0.864100       -23.5134
  34   2.0000      -0.833394       -22.6778
  35   2.0000      -0.777220       -21.1492
  36   2.0000      -0.767029       -20.8719
  37   2.0000      -0.753176       -20.4950
  38   2.0000      -0.735873       -20.0241
  39   2.0000      -0.722282       -19.6543
  40   2.0000      -0.703136       -19.1333
  41   2.0000      -0.690554       -18.7909
  42   2.0000      -0.670797       -18.2533
  43   2.0000      -0.647104       -17.6086
  44   2.0000      -0.620389       -16.8816
  45   2.0000      -0.606933       -16.5155
  46   2.0000      -0.594142       -16.1674
  47   2.0000      -0.591836       -16.1047
  48   2.0000      -0.576748       -15.6941
  49   2.0000      -0.575154       -15.6507
  50   2.0000      -0.563803       -15.3419
  51   2.0000      -0.555898       -15.1268
  52   2.0000      -0.548342       -14.9211
  53   2.0000      -0.542418       -14.7599
  54   2.0000      -0.536341       -14.5946
  55   2.0000      -0.520390       -14.1605
  56   2.0000      -0.517403       -14.0792
  57   2.0000      -0.516019       -14.0416
  58   2.0000      -0.496058       -13.4984
  59   2.0000      -0.486875       -13.2485
  60   2.0000      -0.482304       -13.1241
  61   2.0000      -0.476234       -12.9590
  62   2.0000      -0.472274       -12.8512
  63   2.0000      -0.465178       -12.6581
  64   2.0000      -0.459144       -12.4939
  65   2.0000      -0.452444       -12.3116
  66   2.0000      -0.440390       -11.9836
  67   2.0000      -0.438136       -11.9223
  68   2.0000      -0.433045       -11.7837
  69   2.0000      -0.417969       -11.3735
  70   2.0000      -0.389327       -10.5941
  71   2.0000      -0.372870       -10.1463
  72   2.0000      -0.362259        -9.8576
  73   2.0000      -0.354124        -9.6362
  74   2.0000      -0.344479        -9.3737
  75   2.0000      -0.343335        -9.3426
  76   2.0000      -0.268550        -7.3076
  77   0.0000       0.001594         0.0434
  78   0.0000       0.024105         0.6559
  79   0.0000       0.043632         1.1873
  80   0.0000       0.047278         1.2865
  81   0.0000       0.049107         1.3363

MULLIKEN ATOMIC CHARGES
-----------------------
   0 N :   -0.806142
   1 C :    0.315508
   2 C :    1.677915
   3 C :   -1.161385
   4 C :   -0.755836
   5 C :    2.742936
   6 C :   -0.436726
   7 N :   -1.050658
   8 C :    0.484383
   9 C :    2.307469
  10 C :   -0.587982
  11 C :   -0.569251
  12 C :   -0.233443
  13 C :   -0.577469
  14 C :   -0.631479
  15 C :   -0.058553
  16 C :   -0.607088
  17 C :   -0.648707
  18 C :   -0.175436
  19 C :   -0.324599
  20 N :    0.438449
  21 C :   -0.794642
  22 C :   -1.045012
  23 H :    0.162754
  24 H :    0.123822
  25 H :    0.113343
  26 H :    0.233898
  27 H :    0.247359
  28 H :    0.247292
  29 H :    0.131625
  30 H :    0.159030
  31 H :    0.263087
  32 H :    0.183199
  33 H :    0.357564
  34 H :    0.112938
  35 H :    0.161837
Sum of atomic charges:   -0.0000000

LOEWDIN ATOMIC CHARGES
----------------------
   0 N :    0.229372
   1 C :   -0.289341
   2 C :   -0.381719
   3 C :   -0.012919
   4 C :   -0.012855
   5 C :   -0.291087
   6 C :   -0.433412
   7 N :    0.385106
   8 C :   -0.352724
   9 C :   -0.330023
  10 C :   -0.062910
  11 C :   -0.132462
  12 C :   -0.149912
  13 C :   -0.132610
  14 C :   -0.055286
  15 C :   -0.299568
  16 C :   -0.009190
  17 C :   -0.105876
  18 C :   -0.098966
  19 C :   -0.073419
  20 N :    0.157648
  21 C :   -0.001091
  22 C :   -0.009559
  23 H :    0.198097
  24 H :    0.204158
  25 H :    0.201103
  26 H :    0.171322
  27 H :    0.169172
  28 H :    0.171366
  29 H :    0.196306
  30 H :    0.198853
  31 H :    0.173183
  32 H :    0.174573
  33 H :    0.203218
  34 H :    0.203657
  35 H :    0.197796

  Mayer bond orders larger than 0.100000
B(  0-N ,  1-C ) :   1.8626 B(  0-N ,  3-C ) :   0.1223 B(  1-C ,  2-C ) :   0.1800
B(  1-C ,  3-C ) :   0.2840 B(  1-C ,  4-C ) :  -0.1172 B(  1-C ,  5-C ) :   0.1965
B(  1-C , 22-C ) :   0.2861 B(  2-C ,  3-C ) :   0.3607 B(  2-C ,  4-C ) :   0.1291
B(  2-C ,  5-C ) :  -0.3642 B(  2-C , 21-C ) :   0.1725 B(  2-C , 22-C ) :   0.3759
B(  2-C , 23-H ) :  -0.1662 B(  2-C , 35-H ) :  -0.1524 B(  3-C ,  4-C ) :   1.4459
B(  3-C , 22-C ) :   0.2341 B(  3-C , 23-H ) :   1.1378 B(  4-C ,  6-C ) :   0.3026
B(  4-C ,  7-N ) :   0.1068 B(  4-C , 15-C ) :   0.1037 B(  4-C , 20-N ) :   0.1444
B(  4-C , 21-C ) :  -0.2719 B(  4-C , 24-H ) :   1.2361 B(  5-C ,  6-C ) :  -0.8091
B(  5-C ,  7-N ) :  -0.3685 B(  5-C ,  8-C ) :   0.2427 B(  5-C , 20-N ) :  -0.2111
B(  5-C , 24-H ) :  -0.2978 B(  5-C , 34-H ) :  -0.2672 B(  6-C ,  7-N ) :   1.1716
B(  6-C ,  8-C ) :  -0.3734 B(  6-C , 16-C ) :   0.2211 B(  6-C , 19-C ) :  -0.6511
B(  6-C , 20-N ) :   1.0915 B(  7-N ,  8-C ) :   0.3135 B(  7-N ,  9-C ) :  -0.2183
B(  7-N , 10-C ) :   0.1415 B(  7-N , 14-C ) :   0.1344 B(  7-N , 15-C ) :   0.5579
B(  7-N , 20-N ) :  -0.3271 B(  7-N , 21-C ) :   0.1437 B(  8-C , 10-C ) :   0.2877
B(  8-C , 11-C ) :   0.1652 B(  8-C , 13-C ) :   0.1522 B(  8-C , 14-C ) :   0.3172
B(  8-C , 15-C ) :   1.5699 B(  8-C , 16-C ) :  -0.6203 B(  8-C , 20-N ) :  -0.3740
B(  9-C , 10-C ) :   0.3024 B(  9-C , 11-C ) :  -0.1383 B(  9-C , 13-C ) :  -0.1567
B(  9-C , 14-C ) :   0.2530 B(  9-C , 15-C ) :  -0.2602 B(  9-C , 16-C ) :  -0.1256
B(  9-C , 20-N ) :   0.2117 B(  9-C , 25-H ) :  -0.2797 B(  9-C , 29-H ) :  -0.1740
B( 10-C , 11-C ) :   1.0984 B( 10-C , 14-C ) :  -0.1820 B( 10-C , 25-H ) :   1.2490
B( 11-C , 12-C ) :   1.1837 B( 11-C , 13-C ) :   0.1297 B( 11-C , 26-H ) :   0.9793
B( 12-C , 13-C ) :   1.1725 B( 12-C , 27-H ) :   0.9413 B( 13-C , 14-C ) :   1.1111
B( 13-C , 28-H ) :   0.9539 B( 14-C , 29-H ) :   1.1790 B( 15-C , 16-C ) :   0.8971
B( 15-C , 17-C ) :   0.2223 B( 15-C , 19-C ) :   0.1312 B( 15-C , 20-N ) :   0.3330
B( 15-C , 30-H ) :  -0.1369 B( 16-C , 17-C ) :   1.6642 B( 16-C , 19-C ) :  -0.2311
B( 16-C , 20-N ) :  -0.2082 B( 16-C , 30-H ) :   1.1613 B( 17-C , 18-C ) :   1.0405
B( 17-C , 19-C ) :   0.2020 B( 17-C , 20-N ) :  -0.2211 B( 17-C , 31-H ) :   0.9058
B( 18-C , 19-C ) :   1.0563 B( 18-C , 20-N ) :  -0.2588 B( 18-C , 32-H ) :   1.1042
B( 19-C , 20-N ) :   1.3566 B( 19-C , 32-H ) :  -0.1407 B( 19-C , 33-H ) :   0.7862
B( 21-C , 22-C ) :   1.3680 B( 21-C , 34-H ) :   1.2749 B( 22-C , 35-H ) :   1.1293

-----------------------------------------------------------------------------
         ABSORPTION SPECTRUM VIA TRANSITION ELECTRIC DIPOLE MOMENTS
-----------------------------------------------------------------------------
State   Energy    Wavelength  fosc         T2        TX        TY        TZ
        (cm-1)      (nm)                 (au**2)    (au)      (au)      (au)
-----------------------------------------------------------------------------
   1   32109.8    311.4   0.460961259   4.72609   0.88864   1.81132  -0.80964
   2   32428.6    308.4   0.617626250   6.27007   1.85336  -0.00559  -1.68378
   3   39085.5    255.8   0.514789440   4.33600  -1.18939   1.35342   1.04385
   4   40000.3    250.0   0.001774266   0.01460   0.07829  -0.09064   0.01602
   5   41302.5    242.1   0.006747544   0.05378   0.03834  -0.22674   0.03004
   6   43269.0    231.1   0.013572510   0.10327   0.11149  -0.25325   0.16341
   7   45858.4    218.1   0.233250264   1.67448   0.47317   0.91113  -0.78767
   8   46242.3    216.3   0.111899934   0.79665   0.85510  -0.25247  -0.04137
   9   47879.3    208.9   0.224768731   1.54548   0.95350   0.04623  -0.79636
  10   48359.0    206.8   0.006140135   0.04180   0.07421   0.00652  -0.19040

Dispersion correction           -0.015018341
FINAL SINGLE POINT ENERGY      -934.130676601908

DIPOLE MOMENT
-------------
                                X             Y             Z
Electronic contribution:      8.21766       2.15610      -7.36687
Nuclear contribution   :     -9.41602      -4.95409       8.52587
                        -----------------------------------------
Total Dipole Moment    :     -1.19835      -2.79798       1.15900
                        -----------------------------------------
Magnitude (a.u.)       :      3.25700
Magnitude (Debye)      :      8.27863

Rotational constants in cm-1:     0.016283     0.004560     0.003660
Rotational constants in MHz :   488.158347   136.704891   109.725317

                             ****ORCA TERMINATED NORMALLY****
TOTAL RUN TIME: 0 days 6 hours 34 minutes 9 seconds 827 msec
