                         Program Version 5.0.2 -  RELEASE  -
|  1> ! x3lyp aug-cc-PVTZ RIJCOSX Opt
|  2> %maxcore 4000
|  3> %basis
|  4>  AuxJ "aug-cc-PVTZ/JK"
|  5>  AuxC "aug-cc-PVTZ/C"
|  6>  newGTO H "cc-PVTZ" end
|  7>  newAuxJGTO H "cc-PVTZ/JK" end
|  8>  newAuxCGTO H "cc-PVTZ/C" end
|  9> end
| 10> %cpcm
| 11>  SMD true
| 12>  SMDsolvent "dichloromethane"
| 13> end
| 14> %pal nprocs 4 end
| 15> * xyz 0 1
| 16> N          5.18490        2.63730       -4.83100
| 17> C          4.41990        2.18600       -4.10520
| 18> C          3.47960        1.62540       -3.21360
| 19> C          3.81050        0.48660       -2.47740
| 20> C          2.89070       -0.06950       -1.61400
| 21> C          1.61870        0.49270       -1.47470
| 22> C          0.61840       -0.03480       -0.57060
| 23> N         -0.23240        0.73970        0.07850
| 24> C         -0.98250       -0.03610        0.88210
| 25> C         -1.98970        0.53960        1.75660
| 26> C         -2.34920       -0.05530        2.96470
| 27> C         -3.31410        0.52360        3.76750
| 28> C         -3.92820        1.70400        3.38340
| 29> C         -3.56060        2.31420        2.19460
| 30> C         -2.59840        1.73970        1.38830
| 31> C         -0.61200       -1.37630        0.69960
| 32> C         -1.07960       -2.61750        1.16040
| 33> C         -0.51410       -3.76710        0.69320
| 34> C          0.51450       -3.70090       -0.27770
| 35> C          0.95240       -2.50220       -0.73580
| 36> N          0.42230       -1.34920       -0.24000
| 37> C          1.30890        1.65410       -2.19150
| 38> C          2.22270        2.21520       -3.05360
| 39> H          4.79400        0.05190       -2.58240
| 40> H          3.18170       -0.91920       -1.01440
| 41> H         -1.85040       -0.95500        3.29260
| 42> H         -3.58420        0.05460        4.70290
| 43> H         -4.68310        2.15140        4.01310
| 44> H         -4.02820        3.24160        1.89740
| 45> H         -2.29980        2.20590        0.46230
| 46> H         -1.89870       -2.63830        1.86010
| 47> H         -0.85840       -4.73030        1.03380
| 48> H          0.93860       -4.60940       -0.67300
| 49> H          1.69130       -2.40820       -1.51490
| 50> H          0.33660        2.09850       -2.05020
| 51> H          1.97830        3.10720       -3.61130
| 52> *
| 53>
| 54>
| 55> $new_job
| 56> ! x3lyp aug-cc-PVTZ RIJCOSX SP
| 57> %maxcore 4000
| 58> %basis
| 59>  AuxJ "aug-cc-PVTZ/JK"
| 60>  AuxC "aug-cc-PVTZ/C"
| 61>  newGTO H "cc-PVTZ" end
| 62>  newAuxJGTO H "cc-PVTZ/JK" end
| 63>  newAuxCGTO H "cc-PVTZ/C" end
| 64> end
| 65> %cpcm
| 66>  SMD true
| 67>  SMDsolvent "dichloromethane"
| 68> end
| 69> %pal nprocs 4 end
| 70> %tddft
| 71>  nroots 10
| 72>  maxdim 7
| 73> end
| 74> * xyzfile 0 1
| 75>
| 76>                          ****END OF INPUT****
 Total Charge           Charge          ....    0
 Multiplicity           Mult            ....    1
 Number of Electrons    NEL             ....  154
FINAL SINGLE POINT ENERGY      -933.745759144974
FINAL SINGLE POINT ENERGY      -933.747416631817
FINAL SINGLE POINT ENERGY      -933.747550057849
FINAL SINGLE POINT ENERGY      -933.747572814335
FINAL SINGLE POINT ENERGY      -933.747583528738
FINAL SINGLE POINT ENERGY      -933.747586221074
                    ***********************HURRAY********************
FINAL SINGLE POINT ENERGY      -933.747586274282

CARTESIAN COORDINATES (ANGSTROEM)
---------------------------------
  N      5.235658    2.631152   -4.881337
  C      4.466550    2.181420   -4.149568
  C      3.516375    1.621150   -3.246811
  C      3.825527    0.455715   -2.539661
  C      2.899421   -0.092422   -1.670839
  C      1.642682    0.502613   -1.488692
  C      0.638320   -0.014449   -0.563726
  N     -0.208041    0.758900    0.100960
  C     -0.975052   -0.022695    0.901589
  C     -2.004986    0.548590    1.775070
  C     -2.375538   -0.055175    2.983879
  C     -3.357524    0.507710    3.789321
  C     -3.984276    1.690331    3.412685
  C     -3.616781    2.307157    2.220164
  C     -2.640227    1.744441    1.411063
  C     -0.614608   -1.361976    0.712085
  C     -1.073563   -2.612412    1.179753
  C     -0.513298   -3.762894    0.707561
  C      0.516925   -3.699434   -0.269864
  C      0.961411   -2.505568   -0.731179
  N      0.422663   -1.337354   -0.234512
  C      1.354197    1.683775   -2.191980
  C      2.273044    2.238085   -3.060104
  H      4.793401   -0.008977   -2.663394
  H      3.182171   -0.967987   -1.106571
  H     -1.877791   -0.955666    3.313905
  H     -3.624040    0.025199    4.720690
  H     -4.747351    2.128544    4.042107
  H     -4.097263    3.228186    1.916480
  H     -2.367409    2.224918    0.481794
  H     -1.878782   -2.640308    1.897309
  H     -0.860831   -4.724281    1.057620
  H      0.950376   -4.603514   -0.671116
  H      1.712168   -2.413039   -1.495978
  H      0.393801    2.158670   -2.056207
  H      2.033069    3.141495   -3.602693

 Multiplicity           Mult            ....    1
 Number of Electrons    NEL             ....  154
 Basis Dimension        Dim             .... 1240

ORBITAL ENERGIES
----------------

  NO   OCC          E(Eh)            E(eV)
   0   2.0000     -14.432532      -392.7292
   1   2.0000     -14.349621      -390.4730
   2   2.0000     -14.341587      -390.2544
   3   2.0000     -10.264741      -279.3178
   4   2.0000     -10.249645      -278.9070
   5   2.0000     -10.246337      -278.8170
   6   2.0000     -10.246078      -278.8099
   7   2.0000     -10.242802      -278.7208
   8   2.0000     -10.234386      -278.4918
   9   2.0000     -10.226867      -278.2872
  10   2.0000     -10.220598      -278.1166
  11   2.0000     -10.219444      -278.0852
  12   2.0000     -10.214645      -277.9546
  13   2.0000     -10.213905      -277.9345
  14   2.0000     -10.212050      -277.8840
  15   2.0000     -10.210990      -277.8552
  16   2.0000     -10.210564      -277.8436
  17   2.0000     -10.210065      -277.8300
  18   2.0000     -10.196800      -277.4690
  19   2.0000     -10.196057      -277.4488
  20   2.0000     -10.195816      -277.4423
  21   2.0000     -10.194557      -277.4080
  22   2.0000     -10.194306      -277.4012
  23   2.0000      -1.049897       -28.5691
  24   2.0000      -0.930000       -25.3066
  25   2.0000      -0.928120       -25.2554
  26   2.0000      -0.888397       -24.1745
  27   2.0000      -0.866000       -23.5651
  28   2.0000      -0.837184       -22.7809
  29   2.0000      -0.809919       -22.0390
  30   2.0000      -0.785806       -21.3829
  31   2.0000      -0.773554       -21.0495
  32   2.0000      -0.769483       -20.9387
  33   2.0000      -0.751252       -20.4426
  34   2.0000      -0.723220       -19.6798
  35   2.0000      -0.670904       -18.2562
  36   2.0000      -0.661742       -18.0069
  37   2.0000      -0.646554       -17.5936
  38   2.0000      -0.628600       -17.1051
  39   2.0000      -0.616595       -16.7784
  40   2.0000      -0.598514       -16.2864
  41   2.0000      -0.586136       -15.9496
  42   2.0000      -0.566571       -15.4172
  43   2.0000      -0.545381       -14.8406
  44   2.0000      -0.520758       -14.1705
  45   2.0000      -0.507110       -13.7992
  46   2.0000      -0.496388       -13.5074
  47   2.0000      -0.487962       -13.2781
  48   2.0000      -0.479324       -13.0431
  49   2.0000      -0.474924       -12.9233
  50   2.0000      -0.467453       -12.7201
  51   2.0000      -0.458287       -12.4706
  52   2.0000      -0.450731       -12.2650
  53   2.0000      -0.444385       -12.0923
  54   2.0000      -0.439168       -11.9504
  55   2.0000      -0.424737       -11.5577
  56   2.0000      -0.420885       -11.4529
  57   2.0000      -0.413443       -11.2504
  58   2.0000      -0.401498       -10.9253
  59   2.0000      -0.394541       -10.7360
  60   2.0000      -0.384234       -10.4555
  61   2.0000      -0.381779       -10.3887
  62   2.0000      -0.375546       -10.2191
  63   2.0000      -0.371195       -10.1007
  64   2.0000      -0.367565       -10.0019
  65   2.0000      -0.354720        -9.6524
  66   2.0000      -0.350445        -9.5361
  67   2.0000      -0.345772        -9.4089
  68   2.0000      -0.342885        -9.3304
  69   2.0000      -0.326366        -8.8809
  70   2.0000      -0.295478        -8.0404
  71   2.0000      -0.288308        -7.8453
  72   2.0000      -0.276481        -7.5234
  73   2.0000      -0.270913        -7.3719
  74   2.0000      -0.260418        -7.0863
  75   2.0000      -0.258135        -7.0242
  76   2.0000      -0.194575        -5.2947
  77   0.0000      -0.066139        -1.7997
  78   0.0000      -0.047326        -1.2878
  79   0.0000      -0.025122        -0.6836
  80   0.0000      -0.021129        -0.5749
  81   0.0000      -0.011107        -0.3022

MULLIKEN ATOMIC CHARGES
-----------------------
   0 N :   -0.789965
   1 C :    0.378342
   2 C :    1.490656
   3 C :   -1.039308
   4 C :   -0.544947
   5 C :    2.263239
   6 C :   -0.167339
   7 N :   -1.171322
   8 C :    0.610609
   9 C :    1.974061
  10 C :   -0.497802
  11 C :   -0.493104
  12 C :   -0.204616
  13 C :   -0.530384
  14 C :   -0.471500
  15 C :    0.074009
  16 C :   -0.502447
  17 C :   -0.569620
  18 C :   -0.313521
  19 C :   -0.172415
  20 N :    0.355979
  21 C :   -0.546394
  22 C :   -1.015888
  23 H :    0.131239
  24 H :    0.061348
  25 H :    0.019841
  26 H :    0.197174
  27 H :    0.206025
  28 H :    0.206066
  29 H :    0.080595
  30 H :    0.073737
  31 H :    0.232625
  32 H :    0.163027
  33 H :    0.293959
  34 H :    0.084582
  35 H :    0.133457
Sum of atomic charges:   -0.0000000

LOEWDIN ATOMIC CHARGES
----------------------
   0 N :    0.228429
   1 C :   -0.300502
   2 C :   -0.382995
   3 C :   -0.016407
   4 C :   -0.014821
   5 C :   -0.282277
   6 C :   -0.420458
   7 N :    0.379535
   8 C :   -0.341756
   9 C :   -0.319357
  10 C :   -0.059897
  11 C :   -0.134457
  12 C :   -0.150266
  13 C :   -0.133300
  14 C :   -0.057495
  15 C :   -0.285993
  16 C :   -0.008773
  17 C :   -0.104368
  18 C :   -0.098880
  19 C :   -0.074184
  20 N :    0.167555
  21 C :   -0.005120
  22 C :   -0.012869
  23 H :    0.195905
  24 H :    0.199031
  25 H :    0.195441
  26 H :    0.169754
  27 H :    0.167110
  28 H :    0.169772
  29 H :    0.194420
  30 H :    0.195774
  31 H :    0.172223
  32 H :    0.174318
  33 H :    0.198116
  34 H :    0.201237
  35 H :    0.195557

  Mayer bond orders larger than 0.100000
B(  0-N ,  1-C ) :   1.6760 B(  0-N ,  2-C ) :   0.1868 B(  0-N , 22-C ) :   0.1053
B(  1-C ,  2-C ) :   0.3109 B(  1-C ,  3-C ) :   0.2728 B(  1-C ,  5-C ) :   0.1452
B(  1-C , 22-C ) :   0.2431 B(  2-C ,  3-C ) :   0.5134 B(  2-C ,  4-C ) :   0.1081
B(  2-C ,  5-C ) :  -0.2384 B(  2-C , 21-C ) :   0.1606 B(  2-C , 22-C ) :   0.5129
B(  2-C , 23-H ) :  -0.1311 B(  2-C , 35-H ) :  -0.1197 B(  3-C ,  4-C ) :   1.3782
B(  3-C , 22-C ) :   0.1224 B(  3-C , 23-H ) :   1.1198 B(  4-C ,  5-C ) :   0.3287
B(  4-C ,  6-C ) :   0.2534 B(  4-C ,  7-N ) :   0.1108 B(  4-C , 20-N ) :   0.1131
B(  4-C , 21-C ) :  -0.2974 B(  4-C , 24-H ) :   1.2017 B(  5-C ,  6-C ) :  -0.5743
B(  5-C ,  7-N ) :  -0.2615 B(  5-C ,  8-C ) :   0.1809 B(  5-C , 20-N ) :  -0.1488
B(  5-C , 21-C ) :   0.3983 B(  5-C , 24-H ) :  -0.2014 B(  5-C , 34-H ) :  -0.1757
B(  6-C ,  7-N ) :   1.0029 B(  6-C ,  8-C ) :  -0.3115 B(  6-C , 16-C ) :   0.1743
B(  6-C , 19-C ) :  -0.4787 B(  6-C , 20-N ) :   0.9848 B(  7-N , 10-C ) :   0.1338
B(  7-N , 15-C ) :   0.6611 B(  7-N , 20-N ) :  -0.3719 B(  8-C , 10-C ) :   0.3006
B(  8-C , 11-C ) :   0.1141 B(  8-C , 14-C ) :   0.2717 B(  8-C , 15-C ) :   1.2839
B(  8-C , 16-C ) :  -0.3974 B(  8-C , 20-N ) :  -0.2893 B(  9-C , 10-C ) :   0.5648
B(  9-C , 11-C ) :  -0.1205 B(  9-C , 13-C ) :  -0.1110 B(  9-C , 14-C ) :   0.5543
B(  9-C , 15-C ) :  -0.2217 B(  9-C , 20-N ) :   0.1563 B(  9-C , 25-H ) :  -0.1928
B(  9-C , 29-H ) :  -0.1306 B( 10-C , 11-C ) :   1.1977 B( 10-C , 14-C ) :  -0.2158
B( 10-C , 25-H ) :   1.2166 B( 11-C , 12-C ) :   1.2387 B( 11-C , 13-C ) :   0.1179
B( 11-C , 26-H ) :   0.9623 B( 12-C , 13-C ) :   1.1963 B( 12-C , 27-H ) :   0.9322
B( 13-C , 14-C ) :   1.1921 B( 13-C , 28-H ) :   0.9429 B( 14-C , 29-H ) :   1.1597
B( 15-C , 16-C ) :   1.0283 B( 15-C , 17-C ) :   0.1858 B( 15-C , 20-N ) :   0.4332
B( 15-C , 30-H ) :  -0.1092 B( 16-C , 17-C ) :   1.4838 B( 16-C , 19-C ) :  -0.1420
B( 16-C , 20-N ) :  -0.1606 B( 16-C , 30-H ) :   1.1862 B( 17-C , 18-C ) :   1.2031
B( 17-C , 19-C ) :   0.1698 B( 17-C , 20-N ) :  -0.1959 B( 17-C , 31-H ) :   0.8970
B( 18-C , 19-C ) :   1.1677 B( 18-C , 20-N ) :  -0.2037 B( 18-C , 32-H ) :   1.0531
B( 19-C , 20-N ) :   1.3524 B( 19-C , 33-H ) :   0.8437 B( 21-C , 22-C ) :   1.3200
B( 21-C , 34-H ) :   1.1842 B( 22-C , 35-H ) :   1.1071

-----------------------------------------------------------------------------
         ABSORPTION SPECTRUM VIA TRANSITION ELECTRIC DIPOLE MOMENTS
-----------------------------------------------------------------------------
State   Energy    Wavelength  fosc         T2        TX        TY        TZ
        (cm-1)      (nm)                 (au**2)    (au)      (au)      (au)
-----------------------------------------------------------------------------
   1   24655.2    405.6   0.708131090   9.45543  -1.98927  -1.42843   1.85952
   2   27589.7    362.5   0.240874394   2.87421   1.00282  -1.05515  -0.86903
   3   31721.2    315.2   0.001455126   0.01510  -0.11000  -0.03999  -0.03744
   4   33264.9    300.6   0.410763924   4.06520   1.07518  -1.46314  -0.87659
   5   34623.1    288.8   0.026296675   0.25004   0.20432  -0.45638   0.00374
   6   36413.4    274.6   0.001245716   0.01126  -0.04947   0.06412  -0.06858
   7   38371.8    260.6   0.201566432   1.72934   0.74205   0.65442  -0.86628
   8   38809.0    257.7   0.104331736   0.88503   0.54384   0.55332  -0.53209
   9   38904.6    257.0   0.031582934   0.26726  -0.33973  -0.36158   0.14525
  10   39545.0    252.9   0.007413543   0.06172  -0.11191  -0.03357   0.21924

FINAL SINGLE POINT ENERGY      -933.635249115789

DIPOLE MOMENT
-------------
                                X             Y             Z
Electronic contribution:      7.98949       1.91109      -7.12502
Nuclear contribution   :     -9.32022      -4.90424       8.51403
                        -----------------------------------------
Total Dipole Moment    :     -1.33073      -2.99315       1.38901
                        -----------------------------------------
Magnitude (a.u.)       :      3.55797
Magnitude (Debye)      :      9.04364

Rotational constants in cm-1:     0.015793     0.004601     0.003633
Rotational constants in MHz :   473.451977   137.942024   108.927824

                             ****ORCA TERMINATED NORMALLY****
TOTAL RUN TIME: 0 days 3 hours 28 minutes 35 seconds 908 msec
