                         Program Version 5.0.2 -  RELEASE  -
|  1> ! b3lyp aug-cc-PVTZ RIJCOSX Opt
|  2> %maxcore 4000
|  3> %basis
|  4>  AuxJ "aug-cc-PVTZ/JK"
|  5>  AuxC "aug-cc-PVTZ/C"
|  6>  newGTO H "cc-PVTZ" end
|  7>  newAuxJGTO H "cc-PVTZ/JK" end
|  8>  newAuxCGTO H "cc-PVTZ/C" end
|  9> end
| 10> %cpcm
| 11>  SMD true
| 12>  SMDsolvent "dimethylsulfoxide"
| 13> end
| 14> %pal nprocs 4 end
| 15> * xyz 0 1
| 16> O         -1.10270        2.11530       -1.72360
| 17> C         -0.39350        1.36340       -1.09310
| 18> N          1.00170        1.42490       -1.09150
| 19> C          1.59780        0.46820       -0.30070
| 20> C          3.02770        0.34250       -0.15220
| 21> C          3.91620        1.19900       -0.81370
| 22> C          5.27940        1.05250       -0.65340
| 23> C          5.78420        0.05440        0.16560
| 24> C          4.91430       -0.79940        0.82620
| 25> C          3.54920       -0.66220        0.67320
| 26> C          0.57570       -0.27340        0.25950
| 27> C          0.26280       -1.37720        1.13530
| 28> O          0.94240       -2.13800        1.77370
| 29> O         -1.12690       -1.46380        1.15210
| 30> C         -1.67790       -0.50200        0.35710
| 31> C         -3.10990       -0.43120        0.24050
| 32> C         -3.70390        0.54460       -0.56920
| 33> C         -5.07890        0.60100       -0.67490
| 34> C         -5.87410       -0.30240        0.01570
| 35> C         -5.29050       -1.27060        0.81960
| 36> C         -3.91730       -1.33930        0.93510
| 37> C         -0.67970        0.24860       -0.20720
| 38> H          1.50060        2.11590       -1.62920
| 39> H          3.54990        1.98470       -1.45770
| 40> H          5.95320        1.72000       -1.16990
| 41> H          6.85130       -0.05570        0.28690
| 42> H          5.30290       -1.57790        1.46490
| 43> H          2.87730       -1.32910        1.18930
| 44> H         -3.08380        1.24580       -1.10540
| 45> H         -5.53640        1.35340       -1.29960
| 46> H         -6.94940       -0.25210       -0.07240
| 47> H         -5.91100       -1.97270        1.35630
| 48> H         -3.45050       -2.08760        1.55660
| 49> *
| 50>
| 51>
| 52> $new_job
| 53> ! b3lyp aug-cc-PVTZ RIJCOSX SP
| 54> %maxcore 4000
| 55> %basis
| 56>  AuxJ "aug-cc-PVTZ/JK"
| 57>  AuxC "aug-cc-PVTZ/C"
| 58>  newGTO H "cc-PVTZ" end
| 59>  newAuxJGTO H "cc-PVTZ/JK" end
| 60>  newAuxCGTO H "cc-PVTZ/C" end
| 61> end
| 62> %cpcm
| 63>  SMD true
| 64>  SMDsolvent "dimethylsulfoxide"
| 65> end
| 66> %pal nprocs 4 end
| 67> %tddft
| 68>  nroots 10
| 69>  maxdim 7
| 70> end
| 71> * xyzfile 0 1
| 72>
| 73>                          ****END OF INPUT****
 Total Charge           Charge          ....    0
 Multiplicity           Mult            ....    1
 Number of Electrons    NEL             ....  150
FINAL SINGLE POINT ENERGY      -972.794230345554
FINAL SINGLE POINT ENERGY      -972.795983909354
FINAL SINGLE POINT ENERGY      -972.796389365526
FINAL SINGLE POINT ENERGY      -972.796477848529
FINAL SINGLE POINT ENERGY      -972.796492973135
FINAL SINGLE POINT ENERGY      -972.796517173062
FINAL SINGLE POINT ENERGY      -972.796514198994
FINAL SINGLE POINT ENERGY      -972.796493031463
FINAL SINGLE POINT ENERGY      -972.796486535369
FINAL SINGLE POINT ENERGY      -972.796483030021
FINAL SINGLE POINT ENERGY      -972.796495714033
FINAL SINGLE POINT ENERGY      -972.796493774998
                    ***********************HURRAY********************
FINAL SINGLE POINT ENERGY      -972.796494398593

CARTESIAN COORDINATES (ANGSTROEM)
---------------------------------
  O     -1.081412    2.006700   -1.887407
  C     -0.377146    1.286951   -1.196197
  N      1.028139    1.348194   -1.172011
  C      1.609985    0.422613   -0.327877
  C      3.048797    0.318174   -0.159255
  C      3.917655    1.304355   -0.655144
  C      5.287983    1.185291   -0.481294
  C      5.818223    0.084056    0.184617
  C      4.966694   -0.899058    0.681788
  C      3.595530   -0.785625    0.515888
  C      0.568884   -0.285762    0.249889
  C      0.273512   -1.318977    1.198764
  O      0.907061   -2.059806    1.907979
  O     -1.154590   -1.392844    1.216772
  C     -1.690224   -0.470618    0.351021
  C     -3.130116   -0.413180    0.251341
  C     -3.736125    0.512373   -0.615495
  C     -5.116611    0.568864   -0.717102
  C     -5.912699   -0.290296    0.037841
  C     -5.319881   -1.210008    0.899313
  C     -3.939385   -1.274657    1.009892
  C     -0.673296    0.216591   -0.250323
  H      1.535244    1.978216   -1.776056
  H      3.532404    2.177149   -1.163668
  H      5.943652    1.955792   -0.864676
  H      6.888413   -0.006364    0.316896
  H      5.372847   -1.757762    1.199910
  H      2.943371   -1.552766    0.907447
  H     -3.119871    1.179440   -1.202870
  H     -5.575358    1.284392   -1.386780
  H     -6.990652   -0.243119   -0.045184
  H     -5.935834   -1.878474    1.486264
  H     -3.484996   -1.990234    1.679617

 Multiplicity           Mult            ....    1
 Number of Electrons    NEL             ....  150
 Basis Dimension        Dim             .... 1166

ORBITAL ENERGIES
----------------

  NO   OCC          E(Eh)            E(eV)
   0   2.0000     -19.192159      -522.2452
   1   2.0000     -19.126637      -520.4623
   2   2.0000     -19.116064      -520.1745
   3   2.0000     -14.369537      -391.0150
   4   2.0000     -10.312496      -280.6173
   5   2.0000     -10.294655      -280.1318
   6   2.0000     -10.270150      -279.4650
   7   2.0000     -10.259166      -279.1661
   8   2.0000     -10.204765      -277.6858
   9   2.0000     -10.202200      -277.6160
  10   2.0000     -10.188576      -277.2452
  11   2.0000     -10.188265      -277.2368
  12   2.0000     -10.187966      -277.2287
  13   2.0000     -10.185526      -277.1622
  14   2.0000     -10.184934      -277.1461
  15   2.0000     -10.183964      -277.1198
  16   2.0000     -10.183893      -277.1178
  17   2.0000     -10.183123      -277.0969
  18   2.0000     -10.181318      -277.0478
  19   2.0000     -10.180447      -277.0240
  20   2.0000     -10.180159      -277.0162
  21   2.0000     -10.179790      -277.0062
  22   2.0000      -1.119844       -30.4725
  23   2.0000      -1.056628       -28.7523
  24   2.0000      -1.043521       -28.3956
  25   2.0000      -0.979219       -26.6459
  26   2.0000      -0.871183       -23.7061
  27   2.0000      -0.870262       -23.6810
  28   2.0000      -0.828682       -22.5496
  29   2.0000      -0.793411       -21.5898
  30   2.0000      -0.782646       -21.2969
  31   2.0000      -0.756750       -20.5922
  32   2.0000      -0.755087       -20.5470
  33   2.0000      -0.723795       -19.6955
  34   2.0000      -0.692851       -18.8534
  35   2.0000      -0.675840       -18.3905
  36   2.0000      -0.632939       -17.2231
  37   2.0000      -0.617170       -16.7941
  38   2.0000      -0.612803       -16.6752
  39   2.0000      -0.606740       -16.5102
  40   2.0000      -0.582555       -15.8521
  41   2.0000      -0.546089       -14.8598
  42   2.0000      -0.538894       -14.6640
  43   2.0000      -0.509452       -13.8629
  44   2.0000      -0.506844       -13.7919
  45   2.0000      -0.497476       -13.5370
  46   2.0000      -0.488246       -13.2859
  47   2.0000      -0.480934       -13.0869
  48   2.0000      -0.463367       -12.6089
  49   2.0000      -0.461257       -12.5514
  50   2.0000      -0.454671       -12.3722
  51   2.0000      -0.450093       -12.2477
  52   2.0000      -0.446487       -12.1495
  53   2.0000      -0.437784       -11.9127
  54   2.0000      -0.433181       -11.7875
  55   2.0000      -0.427957       -11.6453
  56   2.0000      -0.427387       -11.6298
  57   2.0000      -0.401807       -10.9337
  58   2.0000      -0.398274       -10.8376
  59   2.0000      -0.396097       -10.7783
  60   2.0000      -0.388808       -10.5800
  61   2.0000      -0.365207        -9.9378
  62   2.0000      -0.361704        -9.8425
  63   2.0000      -0.359755        -9.7894
  64   2.0000      -0.352334        -9.5875
  65   2.0000      -0.348800        -9.4913
  66   2.0000      -0.347031        -9.4432
  67   2.0000      -0.299612        -8.1529
  68   2.0000      -0.297381        -8.0921
  69   2.0000      -0.278031        -7.5656
  70   2.0000      -0.273924        -7.4538
  71   2.0000      -0.272295        -7.4095
  72   2.0000      -0.266212        -7.2440
  73   2.0000      -0.265145        -7.2150
  74   2.0000      -0.208227        -5.6661
  75   0.0000      -0.104121        -2.8333
  76   0.0000      -0.050388        -1.3711
  77   0.0000      -0.021100        -0.5742
  78   0.0000      -0.019297        -0.5251
  79   0.0000      -0.004972        -0.1353

MULLIKEN ATOMIC CHARGES
-----------------------
   0 O :   -0.914677
   1 C :   -0.216356
   2 N :   -0.337404
   3 C :    0.142334
   4 C :    2.017601
   5 C :   -0.642078
   6 C :   -0.546510
   7 C :   -0.178730
   8 C :   -0.554041
   9 C :   -0.351887
  10 C :    0.662895
  11 C :    0.256873
  12 O :   -0.945253
  13 O :   -0.804268
  14 C :    0.109865
  15 C :    2.116921
  16 C :   -0.319395
  17 C :   -0.618764
  18 C :   -0.207672
  19 C :   -0.631346
  20 C :   -0.561321
  21 C :    0.758409
  22 H :    0.090657
  23 H :    0.071175
  24 H :    0.220725
  25 H :    0.211212
  26 H :    0.202206
  27 H :    0.069470
  28 H :    0.143674
  29 H :    0.192032
  30 H :    0.215249
  31 H :    0.222542
  32 H :    0.125860
Sum of atomic charges:   -0.0000000

LOEWDIN ATOMIC CHARGES
----------------------
   0 O :    0.407409
   1 C :   -0.711128
   2 N :    0.430692
   3 C :   -0.256424
   4 C :   -0.284616
   5 C :   -0.036132
   6 C :   -0.110488
   7 C :   -0.122754
   8 C :   -0.104703
   9 C :   -0.032988
  10 C :   -0.181325
  11 C :   -0.776270
  12 O :    0.422107
  13 O :    0.607724
  14 C :   -0.363914
  15 C :   -0.298432
  16 C :   -0.034100
  17 C :   -0.107306
  18 C :   -0.124876
  19 C :   -0.111374
  20 C :   -0.038004
  21 C :   -0.170295
  22 H :    0.173525
  23 H :    0.193880
  24 H :    0.172924
  25 H :    0.171968
  26 H :    0.172890
  27 H :    0.201350
  28 H :    0.199570
  29 H :    0.172409
  30 H :    0.171488
  31 H :    0.172429
  32 H :    0.194763

  Mayer bond orders larger than 0.100000
B(  0-O ,  1-C ) :   0.7993 B(  0-O ,  2-N ) :  -0.2253 B(  0-O , 14-C ) :   0.1284
B(  0-O , 21-C ) :   0.3461 B(  1-C ,  2-N ) :   1.2324 B(  1-C , 10-C ) :  -0.1372
B(  1-C , 21-C ) :   0.5835 B(  2-N ,  3-C ) :   0.7022 B(  2-N ,  4-C ) :  -0.2193
B(  2-N ,  5-C ) :   0.1892 B(  2-N , 10-C ) :  -0.1527 B(  2-N , 14-C ) :   0.1006
B(  2-N , 21-C ) :  -0.5019 B(  2-N , 22-H ) :   1.1616 B(  3-C ,  4-C ) :   0.1847
B(  3-C ,  5-C ) :   0.1697 B(  3-C ,  6-C ) :   0.1008 B(  3-C ,  7-C ) :   0.1058
B(  3-C ,  8-C ) :   0.2367 B(  3-C , 10-C ) :   1.3975 B(  3-C , 11-C ) :  -0.1547
B(  3-C , 14-C ) :   0.1699 B(  3-C , 21-C ) :  -0.5044 B(  3-C , 22-H ) :  -0.1953
B(  3-C , 27-H ) :  -0.1304 B(  4-C ,  5-C ) :   0.3789 B(  4-C ,  6-C ) :  -0.1931
B(  4-C ,  7-C ) :  -0.1158 B(  4-C ,  8-C ) :  -0.2836 B(  4-C ,  9-C ) :   0.7220
B(  4-C , 10-C ) :  -0.2666 B(  4-C , 21-C ) :   0.1141 B(  4-C , 23-H ) :  -0.1175
B(  5-C ,  6-C ) :   1.2642 B(  5-C ,  9-C ) :  -0.2104 B(  5-C , 23-H ) :   1.1570
B(  6-C ,  7-C ) :   1.1902 B(  6-C ,  8-C ) :   0.1374 B(  6-C , 10-C ) :  -0.1321
B(  6-C , 24-H ) :   0.9405 B(  7-C ,  8-C ) :   1.2097 B(  7-C , 25-H ) :   0.9395
B(  8-C ,  9-C ) :   1.2178 B(  8-C , 10-C ) :  -0.1529 B(  8-C , 26-H ) :   0.9640
B(  9-C , 10-C ) :   0.3012 B(  9-C , 27-H ) :   1.1349 B( 10-C , 11-C ) :   0.9543
B( 10-C , 12-O ) :   0.2866 B( 10-C , 13-O ) :  -0.3691 B( 10-C , 14-C ) :  -0.7151
B( 10-C , 15-C ) :   0.1351 B( 10-C , 21-C ) :   1.1733 B( 10-C , 27-H ) :   0.1015
B( 11-C , 12-O ) :   0.7784 B( 11-C , 13-O ) :   0.9999 B( 11-C , 14-C ) :   0.3177
B( 11-C , 21-C ) :  -0.3297 B( 12-O , 14-C ) :   0.1029 B( 13-O , 14-C ) :   0.1777
B( 13-O , 20-C ) :   0.1453 B( 13-O , 21-C ) :   0.2913 B( 14-C , 15-C ) :   0.1120
B( 14-C , 17-C ) :   0.2583 B( 14-C , 18-C ) :   0.1544 B( 14-C , 20-C ) :   0.3188
B( 14-C , 21-C ) :   1.4243 B( 14-C , 28-H ) :  -0.1362 B( 15-C , 16-C ) :   0.7915
B( 15-C , 17-C ) :  -0.3572 B( 15-C , 18-C ) :  -0.1570 B( 15-C , 19-C ) :  -0.1905
B( 15-C , 20-C ) :   0.3326 B( 15-C , 21-C ) :  -0.3085 B( 15-C , 32-H ) :  -0.1135
B( 16-C , 17-C ) :   1.2598 B( 16-C , 20-C ) :  -0.2997 B( 16-C , 21-C ) :   0.2839
B( 16-C , 28-H ) :   1.1020 B( 17-C , 18-C ) :   1.2518 B( 17-C , 19-C ) :   0.1567
B( 17-C , 21-C ) :  -0.1658 B( 17-C , 29-H ) :   0.9768 B( 18-C , 19-C ) :   1.2013
B( 18-C , 30-H ) :   0.9268 B( 19-C , 20-C ) :   1.2243 B( 19-C , 31-H ) :   0.9386
B( 20-C , 32-H ) :   1.1006 B( 21-C , 28-H ) :   0.1140

-----------------------------------------------------------------------------
         ABSORPTION SPECTRUM VIA TRANSITION ELECTRIC DIPOLE MOMENTS
-----------------------------------------------------------------------------
State   Energy    Wavelength  fosc         T2        TX        TY        TZ
        (cm-1)      (nm)                 (au**2)    (au)      (au)      (au)
-----------------------------------------------------------------------------
   1   22783.9    438.9   1.072644949  15.49903   3.71541   1.03139  -0.79433
   2   30021.2    333.1   0.001549470   0.01699   0.11799   0.01693  -0.05276
   3   30295.0    330.1   0.033975962   0.36921   0.60457   0.00086   0.06093
   4   30934.4    323.3   0.009875446   0.10510  -0.22883   0.13946  -0.18245
   5   31148.6    321.0   0.038266193   0.40444   0.46087   0.37416  -0.22812
   6   32581.8    306.9   0.275217620   2.78084   1.60259  -0.32674   0.32526
   7   34855.8    286.9   0.009306240   0.08790  -0.27586   0.05384  -0.09433
   8   35002.8    285.7   0.018255293   0.17170   0.40061  -0.08025   0.06904
   9   36507.8    273.9   0.013248631   0.11947   0.25698  -0.19362   0.12628
  10   36755.6    272.1   0.045881466   0.41095  -0.63228  -0.10539  -0.00832

FINAL SINGLE POINT ENERGY      -972.692683494828

DIPOLE MOMENT
-------------
                                X             Y             Z
Electronic contribution:     -0.47197      -0.69323       0.49380
Nuclear contribution   :      1.58047       1.62396      -1.29616
                        -----------------------------------------
Total Dipole Moment    :      1.10850       0.93073      -0.80236
                        -----------------------------------------
Magnitude (a.u.)       :      1.65494
Magnitude (Debye)      :      4.20652

Rotational constants in cm-1:     0.027244     0.004858     0.004131
Rotational constants in MHz :   816.756166   145.640070   123.830542

                             ****ORCA TERMINATED NORMALLY****
TOTAL RUN TIME: 0 days 5 hours 54 minutes 59 seconds 141 msec
