                         Program Version 5.0.2 -  RELEASE  -
|  1> ! m062x defgrid3 aug-cc-PVTZ RIJCOSX Opt
|  2> %maxcore 4000
|  3> %basis
|  4>  AuxJ "aug-cc-PVTZ/JK"
|  5>  AuxC "aug-cc-PVTZ/C"
|  6>  newGTO H "cc-PVTZ" end
|  7>  newAuxJGTO H "cc-PVTZ/JK" end
|  8>  newAuxCGTO H "cc-PVTZ/C" end
|  9> end
| 10> %cpcm
| 11>  SMD true
| 12>  SMDsolvent "dimethylsulfoxide"
| 13> end
| 14> %pal nprocs 4 end
| 15> * xyz 0 1
| 16> O         -1.10270        2.11530       -1.72360
| 17> C         -0.39350        1.36340       -1.09310
| 18> N          1.00170        1.42490       -1.09150
| 19> C          1.59780        0.46820       -0.30070
| 20> C          3.02770        0.34250       -0.15220
| 21> C          3.91620        1.19900       -0.81370
| 22> C          5.27940        1.05250       -0.65340
| 23> C          5.78420        0.05440        0.16560
| 24> C          4.91430       -0.79940        0.82620
| 25> C          3.54920       -0.66220        0.67320
| 26> C          0.57570       -0.27340        0.25950
| 27> C          0.26280       -1.37720        1.13530
| 28> O          0.94240       -2.13800        1.77370
| 29> O         -1.12690       -1.46380        1.15210
| 30> C         -1.67790       -0.50200        0.35710
| 31> C         -3.10990       -0.43120        0.24050
| 32> C         -3.70390        0.54460       -0.56920
| 33> C         -5.07890        0.60100       -0.67490
| 34> C         -5.87410       -0.30240        0.01570
| 35> C         -5.29050       -1.27060        0.81960
| 36> C         -3.91730       -1.33930        0.93510
| 37> C         -0.67970        0.24860       -0.20720
| 38> H          1.50060        2.11590       -1.62920
| 39> H          3.54990        1.98470       -1.45770
| 40> H          5.95320        1.72000       -1.16990
| 41> H          6.85130       -0.05570        0.28690
| 42> H          5.30290       -1.57790        1.46490
| 43> H          2.87730       -1.32910        1.18930
| 44> H         -3.08380        1.24580       -1.10540
| 45> H         -5.53640        1.35340       -1.29960
| 46> H         -6.94940       -0.25210       -0.07240
| 47> H         -5.91100       -1.97270        1.35630
| 48> H         -3.45050       -2.08760        1.55660
| 49> *
| 50>
| 51>
| 52> $new_job
| 53> ! m062x defgrid3 aug-cc-PVTZ RIJCOSX SP
| 54> %maxcore 4000
| 55> %basis
| 56>  AuxJ "aug-cc-PVTZ/JK"
| 57>  AuxC "aug-cc-PVTZ/C"
| 58>  newGTO H "cc-PVTZ" end
| 59>  newAuxJGTO H "cc-PVTZ/JK" end
| 60>  newAuxCGTO H "cc-PVTZ/C" end
| 61> end
| 62> %cpcm
| 63>  SMD true
| 64>  SMDsolvent "dimethylsulfoxide"
| 65> end
| 66> %pal nprocs 4 end
| 67> %tddft
| 68>  nroots 10
| 69>  maxdim 7
| 70> end
| 71> * xyzfile 0 1
| 72>
| 73>                          ****END OF INPUT****
 Total Charge           Charge          ....    0
 Multiplicity           Mult            ....    1
 Number of Electrons    NEL             ....  150
FINAL SINGLE POINT ENERGY      -972.975916103524
FINAL SINGLE POINT ENERGY      -972.976924693785
FINAL SINGLE POINT ENERGY      -972.977233431891
FINAL SINGLE POINT ENERGY      -972.977262598050
FINAL SINGLE POINT ENERGY      -972.977273319716
FINAL SINGLE POINT ENERGY      -972.977283026315
FINAL SINGLE POINT ENERGY      -972.977290758049
FINAL SINGLE POINT ENERGY      -972.977290942829
FINAL SINGLE POINT ENERGY      -972.977299161280
FINAL SINGLE POINT ENERGY      -972.977307100637
FINAL SINGLE POINT ENERGY      -972.977304444009
FINAL SINGLE POINT ENERGY      -972.977312059596
FINAL SINGLE POINT ENERGY      -972.977143421916
FINAL SINGLE POINT ENERGY      -972.977329307513
FINAL SINGLE POINT ENERGY      -972.977329152718
                    ***********************HURRAY********************
FINAL SINGLE POINT ENERGY      -972.977333935727

CARTESIAN COORDINATES (ANGSTROEM)
---------------------------------
  O     -1.082621    1.996682   -1.893475
  C     -0.378694    1.286821   -1.206832
  N      1.019995    1.351509   -1.178079
  C      1.596190    0.425881   -0.333206
  C      3.036059    0.323421   -0.161513
  C      3.897371    1.319368   -0.631293
  C      5.265187    1.195052   -0.452595
  C      5.787329    0.079015    0.189820
  C      4.935907   -0.914490    0.659679
  C      3.567597   -0.794710    0.489348
  C      0.571708   -0.283747    0.242233
  C      0.268934   -1.315674    1.199775
  O      0.905939   -2.044156    1.907476
  O     -1.137164   -1.387819    1.216279
  C     -1.673777   -0.473900    0.349659
  C     -3.115911   -0.418331    0.254481
  C     -3.708391    0.493236   -0.626213
  C     -5.086946    0.554860   -0.728185
  C     -5.882768   -0.286580    0.042447
  C     -5.296368   -1.192936    0.918127
  C     -3.917407   -1.262675    1.027813
  C     -0.674847    0.212928   -0.257820
  H      1.530768    1.976252   -1.786521
  H      3.508973    2.201770   -1.121614
  H      5.924647    1.972196   -0.814363
  H      6.856566   -0.015912    0.324793
  H      5.339970   -1.784971    1.158528
  H      2.905160   -1.568111    0.853793
  H     -3.083296    1.144989   -1.223857
  H     -5.544191    1.259552   -1.409609
  H     -6.960377   -0.235999   -0.040153
  H     -5.915757   -1.846897    1.516939
  H     -3.459589   -1.967025    1.708039

 Multiplicity           Mult            ....    1
 Number of Electrons    NEL             ....  150
 Basis Dimension        Dim             .... 1166

ORBITAL ENERGIES
----------------

  NO   OCC          E(Eh)            E(eV)
   0   2.0000     -19.696057      -535.9570
   1   2.0000     -19.629106      -534.1351
   2   2.0000     -19.619296      -533.8682
   3   2.0000     -14.802457      -402.7953
   4   2.0000     -10.690229      -290.8959
   5   2.0000     -10.671097      -290.3753
   6   2.0000     -10.643862      -289.6342
   7   2.0000     -10.631758      -289.3048
   8   2.0000     -10.572194      -287.6840
   9   2.0000     -10.569663      -287.6151
  10   2.0000     -10.557210      -287.2763
  11   2.0000     -10.557142      -287.2744
  12   2.0000     -10.555398      -287.2270
  13   2.0000     -10.554549      -287.2039
  14   2.0000     -10.554125      -287.1923
  15   2.0000     -10.553087      -287.1641
  16   2.0000     -10.552142      -287.1384
  17   2.0000     -10.551284      -287.1150
  18   2.0000     -10.549375      -287.0631
  19   2.0000     -10.548606      -287.0422
  20   2.0000     -10.548208      -287.0313
  21   2.0000     -10.547925      -287.0236
  22   2.0000      -1.259454       -34.2715
  23   2.0000      -1.188527       -32.3415
  24   2.0000      -1.173296       -31.9270
  25   2.0000      -1.096904       -29.8483
  26   2.0000      -0.981508       -26.7082
  27   2.0000      -0.979880       -26.6639
  28   2.0000      -0.935377       -25.4529
  29   2.0000      -0.897350       -24.4181
  30   2.0000      -0.884209       -24.0605
  31   2.0000      -0.857149       -23.3242
  32   2.0000      -0.855391       -23.2764
  33   2.0000      -0.821348       -22.3500
  34   2.0000      -0.787440       -21.4273
  35   2.0000      -0.767849       -20.8942
  36   2.0000      -0.721737       -19.6395
  37   2.0000      -0.704321       -19.1655
  38   2.0000      -0.698480       -19.0066
  39   2.0000      -0.692298       -18.8384
  40   2.0000      -0.667602       -18.1664
  41   2.0000      -0.628256       -17.0957
  42   2.0000      -0.618873       -16.8404
  43   2.0000      -0.588838       -16.0231
  44   2.0000      -0.586814       -15.9680
  45   2.0000      -0.580374       -15.7928
  46   2.0000      -0.576561       -15.6890
  47   2.0000      -0.559600       -15.2275
  48   2.0000      -0.543360       -14.7856
  49   2.0000      -0.534939       -14.5564
  50   2.0000      -0.533931       -14.5290
  51   2.0000      -0.526662       -14.3312
  52   2.0000      -0.524767       -14.2796
  53   2.0000      -0.509273       -13.8580
  54   2.0000      -0.503313       -13.6958
  55   2.0000      -0.498543       -13.5660
  56   2.0000      -0.496316       -13.5055
  57   2.0000      -0.477992       -13.0068
  58   2.0000      -0.476396       -12.9634
  59   2.0000      -0.466997       -12.7076
  60   2.0000      -0.462475       -12.5846
  61   2.0000      -0.440395       -11.9837
  62   2.0000      -0.425146       -11.5688
  63   2.0000      -0.421052       -11.4574
  64   2.0000      -0.419780       -11.4228
  65   2.0000      -0.409646       -11.1470
  66   2.0000      -0.407957       -11.1011
  67   2.0000      -0.378492       -10.2993
  68   2.0000      -0.363742        -9.8979
  69   2.0000      -0.352881        -9.6024
  70   2.0000      -0.332124        -9.0376
  71   2.0000      -0.326837        -8.8937
  72   2.0000      -0.321672        -8.7531
  73   2.0000      -0.320610        -8.7243
  74   2.0000      -0.255402        -6.9498
  75   0.0000      -0.079815        -2.1719
  76   0.0000      -0.017692        -0.4814
  77   0.0000       0.003354         0.0913
  78   0.0000       0.007618         0.2073
  79   0.0000       0.008571         0.2332

MULLIKEN ATOMIC CHARGES
-----------------------
   0 O :   -1.061514
   1 C :   -0.187768
   2 N :   -0.540964
   3 C :    0.331843
   4 C :    2.471135
   5 C :   -0.559875
   6 C :   -0.615732
   7 C :   -0.118163
   8 C :   -0.668993
   9 C :   -0.272623
  10 C :    0.736936
  11 C :    0.224913
  12 O :   -1.098330
  13 O :   -0.789997
  14 C :   -0.176528
  15 C :    2.825566
  16 C :   -0.251283
  17 C :   -0.774629
  18 C :   -0.101560
  19 C :   -0.710942
  20 C :   -0.482748
  21 C :    0.789465
  22 H :    0.180476
  23 H :   -0.005031
  24 H :    0.141293
  25 H :    0.131530
  26 H :    0.119436
  27 H :   -0.007772
  28 H :    0.022638
  29 H :    0.105218
  30 H :    0.137938
  31 H :    0.144193
  32 H :    0.061872
Sum of atomic charges:   -0.0000000

LOEWDIN ATOMIC CHARGES
----------------------
   0 O :    0.417121
   1 C :   -0.720647
   2 N :    0.432817
   3 C :   -0.269814
   4 C :   -0.296702
   5 C :   -0.036030
   6 C :   -0.109454
   7 C :   -0.123949
   8 C :   -0.103021
   9 C :   -0.034460
  10 C :   -0.177921
  11 C :   -0.795401
  12 O :    0.432542
  13 O :    0.615908
  14 C :   -0.371756
  15 C :   -0.307989
  16 C :   -0.035000
  17 C :   -0.105540
  18 C :   -0.125841
  19 C :   -0.110507
  20 C :   -0.036927
  21 C :   -0.166722
  22 H :    0.179329
  23 H :    0.197161
  24 H :    0.174212
  25 H :    0.173650
  26 H :    0.174165
  27 H :    0.207033
  28 H :    0.204841
  29 H :    0.173704
  30 H :    0.173266
  31 H :    0.173780
  32 H :    0.198150

  Mayer bond orders larger than 0.100000
B(  0-O ,  1-C ) :   0.7828 B(  0-O ,  2-N ) :  -0.3124 B(  0-O , 14-C ) :   0.1209
B(  0-O , 15-C ) :  -0.1269 B(  0-O , 21-C ) :   0.2464 B(  1-C ,  2-N ) :   1.2748
B(  1-C , 10-C ) :  -0.1992 B(  1-C , 14-C ) :  -0.1351 B(  1-C , 15-C ) :  -0.1752
B(  1-C , 16-C ) :   0.1849 B(  1-C , 21-C ) :   0.7058 B(  1-C , 28-H ) :   0.1442
B(  2-N ,  3-C ) :   0.4162 B(  2-N ,  4-C ) :  -0.2971 B(  2-N ,  5-C ) :   0.2852
B(  2-N , 10-C ) :  -0.2245 B(  2-N , 11-C ) :   0.1051 B(  2-N , 21-C ) :  -0.2950
B(  2-N , 22-H ) :   1.1501 B(  3-C ,  4-C ) :   0.4760 B(  3-C ,  5-C ) :  -0.1450
B(  3-C ,  6-C ) :   0.3589 B(  3-C ,  8-C ) :   0.4459 B(  3-C ,  9-C ) :  -0.3428
B(  3-C , 10-C ) :   1.1095 B(  3-C , 11-C ) :  -0.3162 B(  3-C , 14-C ) :   0.1460
B(  3-C , 21-C ) :  -0.2416 B(  3-C , 22-H ) :  -0.2533 B(  3-C , 27-H ) :  -0.1777
B(  4-C ,  5-C ) :   0.1189 B(  4-C ,  6-C ) :  -0.4976 B(  4-C ,  8-C ) :  -0.4662
B(  4-C ,  9-C ) :   0.6890 B(  4-C , 10-C ) :  -0.4380 B(  4-C , 11-C ) :  -0.1317
B(  4-C , 23-H ) :  -0.3715 B(  4-C , 27-H ) :  -0.3368 B(  5-C ,  6-C ) :   1.1135
B(  5-C ,  9-C ) :  -0.2063 B(  5-C , 10-C ) :   0.1909 B(  5-C , 23-H ) :   1.3820
B(  5-C , 24-H ) :  -0.1152 B(  6-C ,  7-C ) :   1.0879 B(  6-C ,  8-C ) :   0.1168
B(  6-C , 10-C ) :  -0.1311 B(  6-C , 24-H ) :   1.1002 B(  7-C ,  8-C ) :   1.1296
B(  7-C ,  9-C ) :  -0.1084 B(  7-C , 25-H ) :   1.0808 B(  7-C , 26-H ) :  -0.1235
B(  8-C ,  9-C ) :   1.0071 B(  8-C , 10-C ) :  -0.1833 B(  8-C , 26-H ) :   1.1429
B(  8-C , 27-H ) :  -0.1122 B(  9-C , 10-C ) :   0.3443 B(  9-C , 26-H ) :  -0.1061
B(  9-C , 27-H ) :   1.3844 B( 10-C , 11-C ) :   0.9134 B( 10-C , 12-O ) :   0.1639
B( 10-C , 13-O ) :  -0.3756 B( 10-C , 14-C ) :  -0.3260 B( 10-C , 21-C ) :   1.0784
B( 11-C , 12-O ) :   0.6709 B( 11-C , 13-O ) :   1.1645 B( 11-C , 14-C ) :   0.3859
B( 11-C , 21-C ) :  -0.3839 B( 11-C , 27-H ) :   0.1054 B( 12-O , 13-O ) :  -0.1155
B( 12-O , 14-C ) :   0.1059 B( 13-O , 14-C ) :   0.3854 B( 13-O , 15-C ) :  -0.2658
B( 13-O , 20-C ) :   0.2123 B( 13-O , 21-C ) :   0.1042 B( 14-C , 15-C ) :   0.2054
B( 14-C , 16-C ) :  -0.2519 B( 14-C , 17-C ) :   0.4026 B( 14-C , 19-C ) :   0.2911
B( 14-C , 20-C ) :   0.3835 B( 14-C , 21-C ) :   0.8422 B( 14-C , 28-H ) :  -0.1612
B( 15-C , 16-C ) :   0.5308 B( 15-C , 17-C ) :  -0.4201 B( 15-C , 19-C ) :  -0.4182
B( 15-C , 20-C ) :  -0.2592 B( 15-C , 21-C ) :  -0.5037 B( 15-C , 28-H ) :  -0.3954
B( 15-C , 32-H ) :  -0.3649 B( 16-C , 17-C ) :   1.0302 B( 16-C , 20-C ) :  -0.2221
B( 16-C , 21-C ) :   0.2981 B( 16-C , 28-H ) :   1.4296 B( 16-C , 29-H ) :  -0.1130
B( 17-C , 18-C ) :   1.1338 B( 17-C , 19-C ) :   0.1203 B( 17-C , 21-C ) :  -0.2014
B( 17-C , 28-H ) :  -0.1190 B( 17-C , 29-H ) :   1.1664 B( 18-C , 19-C ) :   1.0806
B( 18-C , 29-H ) :  -0.1382 B( 18-C , 30-H ) :   1.0637 B( 19-C , 20-C ) :   1.0083
B( 19-C , 31-H ) :   1.1075 B( 20-C , 21-C ) :   0.1493 B( 20-C , 31-H ) :  -0.1296
B( 20-C , 32-H ) :   1.3126

-----------------------------------------------------------------------------
         ABSORPTION SPECTRUM VIA TRANSITION ELECTRIC DIPOLE MOMENTS
-----------------------------------------------------------------------------
State   Energy    Wavelength  fosc         T2        TX        TY        TZ
        (cm-1)      (nm)                 (au**2)    (au)      (au)      (au)
-----------------------------------------------------------------------------
   1   25007.6    399.9   1.038525799  13.67165   3.41598   1.10763  -0.88083
   2   34993.4    285.8   0.001323286   0.01245   0.10248  -0.01565  -0.04127
   3   35787.0    279.4   0.207470378   1.90856  -1.34914   0.16556  -0.24690
   4   36495.7    274.0   0.018362658   0.16564  -0.40663  -0.01706   0.00181
   5   37347.0    267.8   0.044687396   0.39392  -0.40226  -0.38745   0.28634
   6   37614.9    265.9   0.039780976   0.34817  -0.46519   0.31701  -0.17683
   7   39775.3    251.4   0.184796940   1.52953  -1.15165   0.29425  -0.34154
   8   40199.8    248.8   0.035750206   0.29277   0.51201  -0.13790   0.10772
   9   41676.6    239.9   0.001881913   0.01487   0.04107   0.10307  -0.05054
  10   43462.7    230.1   0.104521061   0.79170  -0.87268   0.14137  -0.10073

FINAL SINGLE POINT ENERGY      -972.863391025065

DIPOLE MOMENT
-------------
                                X             Y             Z
Electronic contribution:     -0.49922      -0.68889       0.47370
Nuclear contribution   :      1.57062       1.60848      -1.27477
                        -----------------------------------------
Total Dipole Moment    :      1.07140       0.91959      -0.80107
                        -----------------------------------------
Magnitude (a.u.)       :      1.62335
Magnitude (Debye)      :      4.12622

Rotational constants in cm-1:     0.027292     0.004910     0.004171
Rotational constants in MHz :   818.178621   147.183409   125.042000

                             ****ORCA TERMINATED NORMALLY****
TOTAL RUN TIME: 0 days 13 hours 10 minutes 40 seconds 619 msec
