                         Program Version 5.0.2 -  RELEASE  -
|  1> ! pbe0 d3bj aug-cc-PVTZ RIJCOSX Opt
|  2> %maxcore 4000
|  3> %basis
|  4>  AuxJ "aug-cc-PVTZ/JK"
|  5>  AuxC "aug-cc-PVTZ/C"
|  6>  newGTO H "cc-PVTZ" end
|  7>  newAuxJGTO H "cc-PVTZ/JK" end
|  8>  newAuxCGTO H "cc-PVTZ/C" end
|  9> end
| 10> %cpcm
| 11>  SMD true
| 12>  SMDsolvent "dimethylsulfoxide"
| 13> end
| 14> %pal nprocs 4 end
| 15> * xyz 0 1
| 16> O         -1.10270        2.11530       -1.72360
| 17> C         -0.39350        1.36340       -1.09310
| 18> N          1.00170        1.42490       -1.09150
| 19> C          1.59780        0.46820       -0.30070
| 20> C          3.02770        0.34250       -0.15220
| 21> C          3.91620        1.19900       -0.81370
| 22> C          5.27940        1.05250       -0.65340
| 23> C          5.78420        0.05440        0.16560
| 24> C          4.91430       -0.79940        0.82620
| 25> C          3.54920       -0.66220        0.67320
| 26> C          0.57570       -0.27340        0.25950
| 27> C          0.26280       -1.37720        1.13530
| 28> O          0.94240       -2.13800        1.77370
| 29> O         -1.12690       -1.46380        1.15210
| 30> C         -1.67790       -0.50200        0.35710
| 31> C         -3.10990       -0.43120        0.24050
| 32> C         -3.70390        0.54460       -0.56920
| 33> C         -5.07890        0.60100       -0.67490
| 34> C         -5.87410       -0.30240        0.01570
| 35> C         -5.29050       -1.27060        0.81960
| 36> C         -3.91730       -1.33930        0.93510
| 37> C         -0.67970        0.24860       -0.20720
| 38> H          1.50060        2.11590       -1.62920
| 39> H          3.54990        1.98470       -1.45770
| 40> H          5.95320        1.72000       -1.16990
| 41> H          6.85130       -0.05570        0.28690
| 42> H          5.30290       -1.57790        1.46490
| 43> H          2.87730       -1.32910        1.18930
| 44> H         -3.08380        1.24580       -1.10540
| 45> H         -5.53640        1.35340       -1.29960
| 46> H         -6.94940       -0.25210       -0.07240
| 47> H         -5.91100       -1.97270        1.35630
| 48> H         -3.45050       -2.08760        1.55660
| 49> *
| 50>
| 51>
| 52> $new_job
| 53> ! b2plyp aug-cc-PVTZ RIJCOSX SP
| 54> %maxcore 4000
| 55> %basis
| 56>  AuxJ "aug-cc-PVTZ/JK"
| 57>  AuxC "aug-cc-PVTZ/C"
| 58>  newGTO H "cc-PVTZ" end
| 59>  newAuxJGTO H "cc-PVTZ/JK" end
| 60>  newAuxCGTO H "cc-PVTZ/C" end
| 61> end
| 62> %cpcm
| 63>  SMD true
| 64>  SMDsolvent "dimethylsulfoxide"
| 65> end
| 66> %pal nprocs 4 end
| 67> %tddft
| 68>  nroots 10
| 69>  maxdim 7
| 70> end
| 71> * xyzfile 0 1
| 72>
| 73>                          ****END OF INPUT****
 Total Charge           Charge          ....    0
 Multiplicity           Mult            ....    1
 Number of Electrons    NEL             ....  150
Dispersion correction           -0.040012747
FINAL SINGLE POINT ENERGY      -972.274106904752
Dispersion correction            ... done
Dispersion correction           -0.039965919
FINAL SINGLE POINT ENERGY      -972.274984776273
Dispersion correction            ... done
Dispersion correction           -0.039940787
FINAL SINGLE POINT ENERGY      -972.275247031749
Dispersion correction            ... done
FINAL SINGLE POINT ENERGY      -972.275272808255
FINAL SINGLE POINT ENERGY      -972.275284111619
FINAL SINGLE POINT ENERGY      -972.275280827416
FINAL SINGLE POINT ENERGY      -972.275233891562
FINAL SINGLE POINT ENERGY      -972.275250636974
FINAL SINGLE POINT ENERGY      -972.275254406918
FINAL SINGLE POINT ENERGY      -972.275249230304
Dispersion correction            ... done
Dispersion correction           -0.039942447
FINAL SINGLE POINT ENERGY      -972.275242580379
Dispersion correction            ... done
                    ***********************HURRAY********************
Dispersion correction           -0.039943189
FINAL SINGLE POINT ENERGY      -972.275245747793

CARTESIAN COORDINATES (ANGSTROEM)
---------------------------------
  O     -1.087693    2.003591   -1.875876
  C     -0.381306    1.287707   -1.191266
  N      1.016889    1.351438   -1.169998
  C      1.599096    0.430274   -0.333318
  C      3.031622    0.324013   -0.165380
  C      3.900328    1.301883   -0.662989
  C      5.266150    1.176465   -0.484786
  C      5.786237    0.077630    0.186221
  C      4.931093   -0.897132    0.684796
  C      3.564617   -0.777227    0.514624
  C      0.568308   -0.282055    0.246640
  C      0.272603   -1.314980    1.193267
  O      0.909683   -2.051994    1.897388
  O     -1.139882   -1.390403    1.213775
  C     -1.677269   -0.475579    0.357111
  C     -3.111477   -0.418629    0.257877
  C     -3.705499    0.509036   -0.606960
  C     -5.081878    0.569117   -0.713470
  C     -5.879593   -0.288835    0.035263
  C     -5.295024   -1.210418    0.895158
  C     -3.918423   -1.278653    1.010661
  C     -0.672067    0.217234   -0.248870
  H      1.522576    1.982455   -1.773123
  H      3.517730    2.175027   -1.176431
  H      5.928426    1.942214   -0.869734
  H      6.856818   -0.017817    0.322269
  H      5.332179   -1.756208    1.208742
  H      2.901423   -1.536894    0.908112
  H     -3.079324    1.175163   -1.189037
  H     -5.537841    1.288001   -1.383396
  H     -6.958412   -0.238982   -0.051751
  H     -5.916456   -1.879096    1.478289
  H     -3.463435   -1.996747    1.680094

 Multiplicity           Mult            ....    1
 Number of Electrons    NEL             ....  150
 Basis Dimension        Dim             .... 1166

ORBITAL ENERGIES
----------------

  NO   OCC          E(Eh)            E(eV)
   0   2.0000     -19.796236      -538.6830
   1   2.0000     -19.725099      -536.7472
   2   2.0000     -19.714703      -536.4643
   3   2.0000     -14.892467      -405.2446
   4   2.0000     -10.768740      -293.0323
   5   2.0000     -10.748761      -292.4887
   6   2.0000     -10.720911      -291.7308
   7   2.0000     -10.710034      -291.4348
   8   2.0000     -10.646998      -289.7195
   9   2.0000     -10.644146      -289.6419
  10   2.0000     -10.633323      -289.3474
  11   2.0000     -10.630347      -289.2664
  12   2.0000     -10.629576      -289.2455
  13   2.0000     -10.629157      -289.2341
  14   2.0000     -10.628756      -289.2232
  15   2.0000     -10.628251      -289.2094
  16   2.0000     -10.627655      -289.1932
  17   2.0000     -10.627113      -289.1785
  18   2.0000     -10.624694      -289.1126
  19   2.0000     -10.623787      -289.0879
  20   2.0000     -10.623473      -289.0794
  21   2.0000     -10.623045      -289.0678
  22   2.0000      -1.277824       -34.7714
  23   2.0000      -1.204958       -32.7886
  24   2.0000      -1.190125       -32.3849
  25   2.0000      -1.117556       -30.4102
  26   2.0000      -0.999654       -27.2020
  27   2.0000      -0.998450       -27.1692
  28   2.0000      -0.951775       -25.8991
  29   2.0000      -0.912536       -24.8314
  30   2.0000      -0.900072       -24.4922
  31   2.0000      -0.872165       -23.7328
  32   2.0000      -0.870363       -23.6838
  33   2.0000      -0.834264       -22.7015
  34   2.0000      -0.797713       -21.7069
  35   2.0000      -0.775739       -21.1089
  36   2.0000      -0.729949       -19.8629
  37   2.0000      -0.712630       -19.3917
  38   2.0000      -0.707544       -19.2532
  39   2.0000      -0.701338       -19.0844
  40   2.0000      -0.672878       -18.3100
  41   2.0000      -0.630835       -17.1659
  42   2.0000      -0.621706       -16.9175
  43   2.0000      -0.591687       -16.1006
  44   2.0000      -0.589137       -16.0312
  45   2.0000      -0.578086       -15.7305
  46   2.0000      -0.570263       -15.5177
  47   2.0000      -0.561387       -15.2761
  48   2.0000      -0.544315       -14.8116
  49   2.0000      -0.539390       -14.6776
  50   2.0000      -0.531136       -14.4529
  51   2.0000      -0.528739       -14.3877
  52   2.0000      -0.521861       -14.2006
  53   2.0000      -0.511921       -13.9301
  54   2.0000      -0.506623       -13.7859
  55   2.0000      -0.500985       -13.6325
  56   2.0000      -0.499217       -13.5844
  57   2.0000      -0.474967       -12.9245
  58   2.0000      -0.468481       -12.7480
  59   2.0000      -0.463052       -12.6003
  60   2.0000      -0.450227       -12.2513
  61   2.0000      -0.427967       -11.6456
  62   2.0000      -0.426339       -11.6013
  63   2.0000      -0.425000       -11.5648
  64   2.0000      -0.413739       -11.2584
  65   2.0000      -0.411318       -11.1925
  66   2.0000      -0.410358       -11.1664
  67   2.0000      -0.371250       -10.1022
  68   2.0000      -0.351175        -9.5560
  69   2.0000      -0.347429        -9.4540
  70   2.0000      -0.317439        -8.6380
  71   2.0000      -0.309608        -8.4249
  72   2.0000      -0.303548        -8.2599
  73   2.0000      -0.302458        -8.2303
  74   2.0000      -0.235596        -6.4109
  75   0.0000      -0.058420        -1.5897
  76   0.0000       0.001938         0.0527
  77   0.0000       0.022450         0.6109
  78   0.0000       0.024134         0.6567
  79   0.0000       0.029695         0.8080

MULLIKEN ATOMIC CHARGES
-----------------------
   0 O :   -0.972487
   1 C :   -0.280105
   2 N :   -0.363094
   3 C :    0.239369
   4 C :    1.994060
   5 C :   -0.635922
   6 C :   -0.650705
   7 C :   -0.193698
   8 C :   -0.614936
   9 C :   -0.320109
  10 C :    0.707679
  11 C :    0.198695
  12 O :   -0.993623
  13 O :   -0.813489
  14 C :    0.103199
  15 C :    2.085004
  16 C :   -0.291949
  17 C :   -0.671500
  18 C :   -0.214402
  19 C :   -0.737477
  20 C :   -0.549902
  21 C :    0.892900
  22 H :    0.120912
  23 H :    0.104197
  24 H :    0.243509
  25 H :    0.236194
  26 H :    0.229715
  27 H :    0.093792
  28 H :    0.185167
  29 H :    0.218483
  30 H :    0.242732
  31 H :    0.251481
  32 H :    0.156308
Sum of atomic charges:   -0.0000000

LOEWDIN ATOMIC CHARGES
----------------------
   0 O :    0.398055
   1 C :   -0.712418
   2 N :    0.434389
   3 C :   -0.260967
   4 C :   -0.289347
   5 C :   -0.034338
   6 C :   -0.111411
   7 C :   -0.123365
   8 C :   -0.104578
   9 C :   -0.031869
  10 C :   -0.177735
  11 C :   -0.779658
  12 O :    0.413325
  13 O :    0.605777
  14 C :   -0.366556
  15 C :   -0.303133
  16 C :   -0.032894
  17 C :   -0.107677
  18 C :   -0.126114
  19 C :   -0.112621
  20 C :   -0.035554
  21 C :   -0.167122
  22 H :    0.175190
  23 H :    0.196847
  24 H :    0.174729
  25 H :    0.174534
  26 H :    0.174759
  27 H :    0.205573
  28 H :    0.203920
  29 H :    0.174228
  30 H :    0.173957
  31 H :    0.174198
  32 H :    0.197874

  Mayer bond orders larger than 0.100000
B(  0-O ,  1-C ) :   0.9280 B(  0-O ,  2-N ) :  -0.3124 B(  0-O , 21-C ) :   0.2591
B(  1-C ,  2-N ) :   1.2493 B(  1-C ,  5-C ) :   0.1011 B(  1-C , 10-C ) :  -0.1631
B(  1-C , 21-C ) :   0.4669 B(  2-N ,  3-C ) :   0.6666 B(  2-N ,  4-C ) :  -0.2505
B(  2-N ,  5-C ) :   0.2235 B(  2-N , 10-C ) :  -0.1988 B(  2-N , 21-C ) :  -0.4938
B(  2-N , 22-H ) :   1.1713 B(  3-C ,  4-C ) :   0.3263 B(  3-C ,  6-C ) :   0.1346
B(  3-C ,  8-C ) :   0.2457 B(  3-C ,  9-C ) :  -0.1077 B(  3-C , 10-C ) :   1.4244
B(  3-C , 11-C ) :  -0.1870 B(  3-C , 14-C ) :   0.1342 B(  3-C , 15-C ) :   0.1405
B(  3-C , 21-C ) :  -0.4531 B(  3-C , 22-H ) :  -0.2099 B(  3-C , 27-H ) :  -0.1598
B(  4-C ,  5-C ) :   0.4014 B(  4-C ,  6-C ) :  -0.2581 B(  4-C ,  8-C ) :  -0.3250
B(  4-C ,  9-C ) :   0.7546 B(  4-C , 10-C ) :  -0.3156 B(  4-C , 23-H ) :  -0.1147
B(  4-C , 27-H ) :  -0.1069 B(  5-C ,  6-C ) :   1.2130 B(  5-C ,  9-C ) :  -0.2046
B(  5-C , 10-C ) :   0.1484 B(  5-C , 16-C ) :   0.1596 B(  5-C , 18-C ) :  -0.1298
B(  5-C , 21-C ) :  -0.1037 B(  5-C , 23-H ) :   1.1673 B(  6-C ,  7-C ) :   1.1873
B(  6-C ,  8-C ) :   0.1763 B(  6-C , 10-C ) :  -0.1217 B(  6-C , 24-H ) :   0.9662
B(  7-C ,  8-C ) :   1.1701 B(  7-C , 16-C ) :  -0.1138 B(  7-C , 17-C ) :   0.1034
B(  7-C , 25-H ) :   0.9600 B(  8-C ,  9-C ) :   1.1660 B(  8-C , 10-C ) :  -0.1490
B(  8-C , 16-C ) :  -0.1652 B(  8-C , 18-C ) :   0.1158 B(  8-C , 21-C ) :   0.1040
B(  8-C , 26-H ) :   0.9743 B(  9-C , 10-C ) :   0.2981 B(  9-C , 18-C ) :   0.1363
B(  9-C , 27-H ) :   1.1796 B( 10-C , 11-C ) :   0.8947 B( 10-C , 12-O ) :   0.2038
B( 10-C , 13-O ) :  -0.3708 B( 10-C , 14-C ) :  -0.6127 B( 10-C , 21-C ) :   1.1776
B( 10-C , 27-H ) :   0.1133 B( 11-C , 12-O ) :   0.8826 B( 11-C , 13-O ) :   1.0628
B( 11-C , 14-C ) :   0.3467 B( 11-C , 21-C ) :  -0.3464 B( 13-O , 14-C ) :   0.2119
B( 13-O , 20-C ) :   0.1685 B( 13-O , 21-C ) :   0.1979 B( 14-C , 15-C ) :   0.1267
B( 14-C , 16-C ) :  -0.1081 B( 14-C , 17-C ) :   0.2887 B( 14-C , 18-C ) :   0.1600
B( 14-C , 19-C ) :   0.1399 B( 14-C , 20-C ) :   0.2986 B( 14-C , 21-C ) :   1.4331
B( 14-C , 28-H ) :  -0.1328 B( 15-C , 16-C ) :   0.8312 B( 15-C , 17-C ) :  -0.3630
B( 15-C , 19-C ) :  -0.2451 B( 15-C , 20-C ) :   0.3048 B( 15-C , 21-C ) :  -0.2803
B( 15-C , 32-H ) :  -0.1302 B( 16-C , 17-C ) :   1.2248 B( 16-C , 20-C ) :  -0.2898
B( 16-C , 21-C ) :   0.2996 B( 16-C , 28-H ) :   1.1236 B( 17-C , 18-C ) :   1.2136
B( 17-C , 19-C ) :   0.1875 B( 17-C , 21-C ) :  -0.1759 B( 17-C , 29-H ) :   0.9968
B( 18-C , 19-C ) :   1.1798 B( 18-C , 30-H ) :   0.9494 B( 19-C , 20-C ) :   1.1515
B( 19-C , 31-H ) :   0.9568 B( 20-C , 32-H ) :   1.1140 B( 21-C , 28-H ) :   0.1034

MP2 TOTAL ENERGY:     -972.592244868 Eh

-----------------------------------------------------------------------------
         ABSORPTION SPECTRUM VIA TRANSITION ELECTRIC DIPOLE MOMENTS
-----------------------------------------------------------------------------
State   Energy    Wavelength  fosc         T2        TX        TY        TZ
        (cm-1)      (nm)                 (au**2)    (au)      (au)      (au)
-----------------------------------------------------------------------------
   1   22674.2    441.0   1.026894562  14.90973   3.59916   1.10183  -0.86125
   2   33307.9    300.2   0.014540675   0.14372  -0.34055   0.11018  -0.12492
   3   32102.5    311.5   0.078055942   0.80047  -0.86819   0.10115  -0.19099
   4   33529.7    298.2   0.050853486   0.49931  -0.36774  -0.49720   0.34186
   5   33640.4    297.3   0.094514011   0.92493   0.90714  -0.26334   0.18080
   6   30854.2    324.1   0.007491806   0.07994  -0.25988   0.04622  -0.10130
   7   35306.9    283.2   0.215684276   2.01110  -1.31374   0.36628  -0.38861
   8   40567.3    246.5   0.001060799   0.00861  -0.03553  -0.07727   0.03708
   9   36066.2    277.3   0.003740724   0.03415   0.18419  -0.00057  -0.01478
  10   39110.6    255.7   0.013135250   0.11057   0.32278  -0.01149  -0.07904

Dispersion correction           -0.035997853
FINAL SINGLE POINT ENERGY      -971.293897563739

DIPOLE MOMENT
-------------
                                X             Y             Z
Electronic contribution:     -0.44248      -0.67125       0.48296
Nuclear contribution   :      1.57242       1.61063      -1.29186
                        -----------------------------------------
Total Dipole Moment    :      1.12994       0.93938      -0.80890
                        -----------------------------------------
Magnitude (a.u.)       :      1.67735
Magnitude (Debye)      :      4.26350

Rotational constants in cm-1:     0.027372     0.004915     0.004174
Rotational constants in MHz :   820.593763   147.333164   125.127456

                             ****ORCA TERMINATED NORMALLY****
TOTAL RUN TIME: 0 days 9 hours 36 minutes 35 seconds 980 msec
