                         Program Version 5.0.2 -  RELEASE  -
|  1> ! pbe0 aug-cc-PVTZ RIJCOSX Opt
|  2> %maxcore 4000
|  3> %basis
|  4>  AuxJ "aug-cc-PVTZ/JK"
|  5>  AuxC "aug-cc-PVTZ/C"
|  6>  newGTO H "cc-PVTZ" end
|  7>  newAuxJGTO H "cc-PVTZ/JK" end
|  8>  newAuxCGTO H "cc-PVTZ/C" end
|  9> end
| 10> %cpcm
| 11>  SMD true
| 12>  SMDsolvent "dimethylsulfoxide"
| 13> end
| 14> %pal nprocs 4 end
| 15> * xyz 0 1
| 16> O         -1.10270        2.11530       -1.72360
| 17> C         -0.39350        1.36340       -1.09310
| 18> N          1.00170        1.42490       -1.09150
| 19> C          1.59780        0.46820       -0.30070
| 20> C          3.02770        0.34250       -0.15220
| 21> C          3.91620        1.19900       -0.81370
| 22> C          5.27940        1.05250       -0.65340
| 23> C          5.78420        0.05440        0.16560
| 24> C          4.91430       -0.79940        0.82620
| 25> C          3.54920       -0.66220        0.67320
| 26> C          0.57570       -0.27340        0.25950
| 27> C          0.26280       -1.37720        1.13530
| 28> O          0.94240       -2.13800        1.77370
| 29> O         -1.12690       -1.46380        1.15210
| 30> C         -1.67790       -0.50200        0.35710
| 31> C         -3.10990       -0.43120        0.24050
| 32> C         -3.70390        0.54460       -0.56920
| 33> C         -5.07890        0.60100       -0.67490
| 34> C         -5.87410       -0.30240        0.01570
| 35> C         -5.29050       -1.27060        0.81960
| 36> C         -3.91730       -1.33930        0.93510
| 37> C         -0.67970        0.24860       -0.20720
| 38> H          1.50060        2.11590       -1.62920
| 39> H          3.54990        1.98470       -1.45770
| 40> H          5.95320        1.72000       -1.16990
| 41> H          6.85130       -0.05570        0.28690
| 42> H          5.30290       -1.57790        1.46490
| 43> H          2.87730       -1.32910        1.18930
| 44> H         -3.08380        1.24580       -1.10540
| 45> H         -5.53640        1.35340       -1.29960
| 46> H         -6.94940       -0.25210       -0.07240
| 47> H         -5.91100       -1.97270        1.35630
| 48> H         -3.45050       -2.08760        1.55660
| 49> *
| 50>
| 51>
| 52> $new_job
| 53> ! pbe0 aug-cc-PVTZ RIJCOSX SP
| 54> %maxcore 4000
| 55> %basis
| 56>  AuxJ "aug-cc-PVTZ/JK"
| 57>  AuxC "aug-cc-PVTZ/C"
| 58>  newGTO H "cc-PVTZ" end
| 59>  newAuxJGTO H "cc-PVTZ/JK" end
| 60>  newAuxCGTO H "cc-PVTZ/C" end
| 61> end
| 62> %cpcm
| 63>  SMD true
| 64>  SMDsolvent "dimethylsulfoxide"
| 65> end
| 66> %pal nprocs 4 end
| 67> %tddft
| 68>  nroots 10
| 69>  maxdim 7
| 70> end
| 71> * xyzfile 0 1
| 72>
| 73>                          ****END OF INPUT****
 Total Charge           Charge          ....    0
 Multiplicity           Mult            ....    1
 Number of Electrons    NEL             ....  150
FINAL SINGLE POINT ENERGY      -972.234094160691
FINAL SINGLE POINT ENERGY      -972.235046623136
FINAL SINGLE POINT ENERGY      -972.235313976718
FINAL SINGLE POINT ENERGY      -972.235348441894
FINAL SINGLE POINT ENERGY      -972.235352481340
FINAL SINGLE POINT ENERGY      -972.235356591364
FINAL SINGLE POINT ENERGY      -972.235318046379
FINAL SINGLE POINT ENERGY      -972.235315302159
FINAL SINGLE POINT ENERGY      -972.235316104404
FINAL SINGLE POINT ENERGY      -972.235319710847
FINAL SINGLE POINT ENERGY      -972.235319968107
                    ***********************HURRAY********************
FINAL SINGLE POINT ENERGY      -972.235321933584

CARTESIAN COORDINATES (ANGSTROEM)
---------------------------------
  O     -1.081198    2.005378   -1.880010
  C     -0.377169    1.288726   -1.193471
  N      1.020411    1.350153   -1.169746
  C      1.600369    0.428801   -0.331815
  C      3.034736    0.322583   -0.163482
  C      3.903537    1.302231   -0.659067
  C      5.269936    1.177754   -0.481969
  C      5.791963    0.077867    0.186021
  C      4.937722   -0.898759    0.682634
  C      3.570594   -0.779655    0.513541
  C      0.566762   -0.281255    0.246566
  C      0.267522   -1.313397    1.193262
  O      0.902566   -2.051432    1.898613
  O     -1.143616   -1.386584    1.211868
  C     -1.678672   -0.471586    0.354108
  C     -3.114706   -0.415857    0.255606
  C     -3.713293    0.508989   -0.609714
  C     -5.090382    0.566359   -0.714093
  C     -5.885599   -0.291629    0.037367
  C     -5.297392   -1.210548    0.897779
  C     -3.920190   -1.275929    1.010975
  C     -0.671046    0.219362   -0.250759
  H      1.527535    1.980535   -1.772639
  H      3.521241    2.176887   -1.170556
  H      5.931058    1.945384   -0.865714
  H      6.862904   -0.016930    0.321173
  H      5.339824   -1.759013    1.204272
  H      2.909421   -1.542015    0.905829
  H     -3.090636    1.176013   -1.194837
  H     -5.548645    1.283430   -1.384711
  H     -6.964830   -0.243895   -0.047935
  H     -5.916341   -1.879670    1.483397
  H     -3.464185   -1.992698    1.681409

 Multiplicity           Mult            ....    1
 Number of Electrons    NEL             ....  150
 Basis Dimension        Dim             .... 1166

ORBITAL ENERGIES
----------------

  NO   OCC          E(Eh)            E(eV)
   0   2.0000     -19.279607      -524.6248
   1   2.0000     -19.207602      -522.6654
   2   2.0000     -19.198020      -522.4047
   3   2.0000     -14.441298      -392.9677
   4   2.0000     -10.365216      -282.0519
   5   2.0000     -10.347294      -281.5642
   6   2.0000     -10.325408      -280.9686
   7   2.0000     -10.313988      -280.6579
   8   2.0000     -10.259505      -279.1753
   9   2.0000     -10.256858      -279.1033
  10   2.0000     -10.243305      -278.7345
  11   2.0000     -10.242664      -278.7170
  12   2.0000     -10.241738      -278.6919
  13   2.0000     -10.240652      -278.6623
  14   2.0000     -10.239830      -278.6399
  15   2.0000     -10.238951      -278.6160
  16   2.0000     -10.238687      -278.6088
  17   2.0000     -10.237929      -278.5882
  18   2.0000     -10.235949      -278.5343
  19   2.0000     -10.235060      -278.5101
  20   2.0000     -10.234886      -278.5054
  21   2.0000     -10.234486      -278.4945
  22   2.0000      -1.160831       -31.5878
  23   2.0000      -1.090827       -29.6829
  24   2.0000      -1.076049       -29.2808
  25   2.0000      -1.012829       -27.5605
  26   2.0000      -0.902086       -24.5470
  27   2.0000      -0.900936       -24.5157
  28   2.0000      -0.858144       -23.3513
  29   2.0000      -0.821500       -22.3541
  30   2.0000      -0.810415       -22.0525
  31   2.0000      -0.783004       -21.3066
  32   2.0000      -0.781367       -21.2621
  33   2.0000      -0.748768       -20.3750
  34   2.0000      -0.718236       -19.5442
  35   2.0000      -0.700455       -19.0604
  36   2.0000      -0.656125       -17.8541
  37   2.0000      -0.639410       -17.3992
  38   2.0000      -0.634517       -17.2661
  39   2.0000      -0.627995       -17.0886
  40   2.0000      -0.604699       -16.4547
  41   2.0000      -0.566221       -15.4077
  42   2.0000      -0.558477       -15.1969
  43   2.0000      -0.527704       -14.3596
  44   2.0000      -0.526330       -14.3222
  45   2.0000      -0.515341       -14.0231
  46   2.0000      -0.511776       -13.9261
  47   2.0000      -0.497530       -13.5385
  48   2.0000      -0.479890       -13.0585
  49   2.0000      -0.478657       -13.0249
  50   2.0000      -0.472182       -12.8487
  51   2.0000      -0.468400       -12.7458
  52   2.0000      -0.465232       -12.6596
  53   2.0000      -0.453155       -12.3310
  54   2.0000      -0.448044       -12.1919
  55   2.0000      -0.442514       -12.0414
  56   2.0000      -0.441573       -12.0158
  57   2.0000      -0.419064       -11.4033
  58   2.0000      -0.414110       -11.2685
  59   2.0000      -0.412868       -11.2347
  60   2.0000      -0.406922       -11.0729
  61   2.0000      -0.382382       -10.4051
  62   2.0000      -0.373273       -10.1573
  63   2.0000      -0.371367       -10.1054
  64   2.0000      -0.368763       -10.0345
  65   2.0000      -0.360562        -9.8114
  66   2.0000      -0.358813        -9.7638
  67   2.0000      -0.314270        -8.5517
  68   2.0000      -0.312730        -8.5098
  69   2.0000      -0.291953        -7.9445
  70   2.0000      -0.287660        -7.8276
  71   2.0000      -0.285956        -7.7813
  72   2.0000      -0.279690        -7.6107
  73   2.0000      -0.278675        -7.5831
  74   2.0000      -0.218311        -5.9405
  75   0.0000      -0.103359        -2.8125
  76   0.0000      -0.046731        -1.2716
  77   0.0000      -0.017899        -0.4871
  78   0.0000      -0.016112        -0.4384
  79   0.0000      -0.000257        -0.0070

MULLIKEN ATOMIC CHARGES
-----------------------
   0 O :   -0.888725
   1 C :   -0.215377
   2 N :   -0.324827
   3 C :    0.393217
   4 C :    1.726698
   5 C :   -0.671747
   6 C :   -0.529611
   7 C :   -0.225767
   8 C :   -0.534643
   9 C :   -0.422057
  10 C :    0.428886
  11 C :    0.243745
  12 O :   -0.921533
  13 O :   -0.699363
  14 C :    0.234825
  15 C :    1.871814
  16 C :   -0.422720
  17 C :   -0.588069
  18 C :   -0.263573
  19 C :   -0.594394
  20 C :   -0.611817
  21 C :    0.665693
  22 H :    0.120237
  23 H :    0.131443
  24 H :    0.263576
  25 H :    0.257237
  26 H :    0.253277
  27 H :    0.147598
  28 H :    0.222747
  29 H :    0.246427
  30 H :    0.260084
  31 H :    0.267671
  32 H :    0.179046
Sum of atomic charges:   -0.0000000

LOEWDIN ATOMIC CHARGES
----------------------
   0 O :    0.416374
   1 C :   -0.720554
   2 N :    0.435956
   3 C :   -0.265839
   4 C :   -0.292782
   5 C :   -0.037597
   6 C :   -0.112648
   7 C :   -0.125549
   8 C :   -0.106286
   9 C :   -0.035593
  10 C :   -0.182163
  11 C :   -0.791191
  12 O :    0.429919
  13 O :    0.620149
  14 C :   -0.371879
  15 C :   -0.305690
  16 C :   -0.036344
  17 C :   -0.108675
  18 C :   -0.127535
  19 C :   -0.113149
  20 C :   -0.038830
  21 C :   -0.171420
  22 H :    0.177056
  23 H :    0.198150
  24 H :    0.176458
  25 H :    0.175611
  26 H :    0.176451
  27 H :    0.206538
  28 H :    0.204777
  29 H :    0.175993
  30 H :    0.175164
  31 H :    0.175974
  32 H :    0.199154

  Mayer bond orders larger than 0.100000
B(  0-O ,  1-C ) :   0.8858 B(  0-O ,  2-N ) :  -0.2363 B(  0-O , 14-C ) :   0.1169
B(  0-O , 21-C ) :   0.3257 B(  1-C ,  2-N ) :   1.3148 B(  1-C , 10-C ) :  -0.1350
B(  1-C , 21-C ) :   0.7979 B(  2-N ,  3-C ) :   0.6716 B(  2-N ,  4-C ) :  -0.2078
B(  2-N ,  5-C ) :   0.1893 B(  2-N , 14-C ) :   0.1276 B(  2-N , 21-C ) :  -0.5863
B(  2-N , 22-H ) :   1.1476 B(  3-C ,  4-C ) :   0.3993 B(  3-C ,  7-C ) :   0.1111
B(  3-C ,  8-C ) :   0.1884 B(  3-C ,  9-C ) :  -0.1243 B(  3-C , 10-C ) :   1.4832
B(  3-C , 11-C ) :  -0.2060 B(  3-C , 14-C ) :   0.1136 B(  3-C , 21-C ) :  -0.4405
B(  3-C , 22-H ) :  -0.2097 B(  3-C , 23-H ) :  -0.1174 B(  3-C , 27-H ) :  -0.1627
B(  4-C ,  5-C ) :   0.6120 B(  4-C ,  6-C ) :  -0.1531 B(  4-C ,  7-C ) :  -0.1226
B(  4-C ,  8-C ) :  -0.2511 B(  4-C ,  9-C ) :   0.8378 B(  4-C , 10-C ) :  -0.2747
B(  5-C ,  6-C ) :   1.3366 B(  5-C ,  9-C ) :  -0.1652 B(  5-C , 23-H ) :   1.0765
B(  6-C ,  7-C ) :   1.2632 B(  6-C ,  8-C ) :   0.1398 B(  6-C , 24-H ) :   0.8932
B(  7-C ,  8-C ) :   1.2705 B(  7-C , 25-H ) :   0.8924 B(  8-C ,  9-C ) :   1.2944
B(  8-C , 10-C ) :  -0.1080 B(  8-C , 26-H ) :   0.9016 B(  9-C , 10-C ) :   0.2412
B(  9-C , 27-H ) :   1.0584 B( 10-C , 11-C ) :   1.1655 B( 10-C , 12-O ) :   0.2650
B( 10-C , 13-O ) :  -0.3471 B( 10-C , 14-C ) :  -0.6507 B( 10-C , 21-C ) :   1.2169
B( 10-C , 27-H ) :   0.1013 B( 11-C , 12-O ) :   0.8523 B( 11-C , 13-O ) :   1.0644
B( 11-C , 14-C ) :   0.3058 B( 11-C , 21-C ) :  -0.3512 B( 13-O , 14-C ) :   0.2077
B( 13-O , 20-C ) :   0.1223 B( 13-O , 21-C ) :   0.2548 B( 14-C , 15-C ) :   0.2887
B( 14-C , 17-C ) :   0.2265 B( 14-C , 18-C ) :   0.1512 B( 14-C , 20-C ) :   0.1852
B( 14-C , 21-C ) :   1.4960 B( 14-C , 28-H ) :  -0.1325 B( 15-C , 16-C ) :   0.8429
B( 15-C , 17-C ) :  -0.3377 B( 15-C , 18-C ) :  -0.1702 B( 15-C , 19-C ) :  -0.1634
B( 15-C , 20-C ) :   0.5690 B( 15-C , 21-C ) :  -0.3058 B( 16-C , 17-C ) :   1.3533
B( 16-C , 20-C ) :  -0.2467 B( 16-C , 21-C ) :   0.2318 B( 16-C , 28-H ) :   1.0249
B( 17-C , 18-C ) :   1.2979 B( 17-C , 19-C ) :   0.1561 B( 17-C , 21-C ) :  -0.1411
B( 17-C , 29-H ) :   0.9115 B( 18-C , 19-C ) :   1.2720 B( 18-C , 30-H ) :   0.8848
B( 19-C , 20-C ) :   1.3175 B( 19-C , 31-H ) :   0.8856 B( 20-C , 32-H ) :   1.0313

-----------------------------------------------------------------------------
         ABSORPTION SPECTRUM VIA TRANSITION ELECTRIC DIPOLE MOMENTS
-----------------------------------------------------------------------------
State   Energy    Wavelength  fosc         T2        TX        TY        TZ
        (cm-1)      (nm)                 (au**2)    (au)      (au)      (au)
-----------------------------------------------------------------------------
   1   23296.6    429.2   1.074532575  15.18459  -3.66347  -1.05044   0.81248
   2   31026.2    322.3   0.000496929   0.00527  -0.04134  -0.01003   0.05885
   3   31746.1    315.0   0.048894021   0.50704   0.70976   0.00077   0.05730
   4   32447.6    308.2   0.018281492   0.18548   0.37678  -0.11373   0.17489
   5   32714.5    305.7   0.041179719   0.41440   0.44227   0.39350  -0.25289
   6   33899.5    295.0   0.260437441   2.52921  -1.52542   0.32462  -0.31131
   7   36016.2    277.7   0.012156441   0.11112  -0.31015   0.06162  -0.10548
   8   36167.7    276.5   0.037149089   0.33814   0.55782  -0.11891   0.11330
   9   38095.2    262.5   0.008671093   0.07493   0.14436  -0.20481   0.11022
  10   38391.4    260.5   0.069899073   0.59940   0.76551   0.11571  -0.00198

FINAL SINGLE POINT ENERGY      -972.129174905115

DIPOLE MOMENT
-------------
                                X             Y             Z
Electronic contribution:     -0.50686      -0.67546       0.49076
Nuclear contribution   :      1.57762       1.59781      -1.28372
                        -----------------------------------------
Total Dipole Moment    :      1.07076       0.92235      -0.79296
                        -----------------------------------------
Magnitude (a.u.)       :      1.62051
Magnitude (Debye)      :      4.11901

Rotational constants in cm-1:     0.027372     0.004905     0.004167
Rotational constants in MHz :   820.596355   147.037094   124.920345

                             ****ORCA TERMINATED NORMALLY****
TOTAL RUN TIME: 0 days 7 hours 2 minutes 8 seconds 964 msec
