                         Program Version 5.0.2 -  RELEASE  -
|  1> ! wb97x-d3 aug-cc-PVTZ RIJCOSX Opt
|  2> %maxcore 4000
|  3> %basis
|  4>  AuxJ "aug-cc-PVTZ/JK"
|  5>  AuxC "aug-cc-PVTZ/C"
|  6>  newGTO H "cc-PVTZ" end
|  7>  newAuxJGTO H "cc-PVTZ/JK" end
|  8>  newAuxCGTO H "cc-PVTZ/C" end
|  9> end
| 10> %cpcm
| 11>  SMD true
| 12>  SMDsolvent "dimethylsulfoxide"
| 13> end
| 14> %pal nprocs 4 end
| 15> * xyz 0 1
| 16> O         -1.10270        2.11530       -1.72360
| 17> C         -0.39350        1.36340       -1.09310
| 18> N          1.00170        1.42490       -1.09150
| 19> C          1.59780        0.46820       -0.30070
| 20> C          3.02770        0.34250       -0.15220
| 21> C          3.91620        1.19900       -0.81370
| 22> C          5.27940        1.05250       -0.65340
| 23> C          5.78420        0.05440        0.16560
| 24> C          4.91430       -0.79940        0.82620
| 25> C          3.54920       -0.66220        0.67320
| 26> C          0.57570       -0.27340        0.25950
| 27> C          0.26280       -1.37720        1.13530
| 28> O          0.94240       -2.13800        1.77370
| 29> O         -1.12690       -1.46380        1.15210
| 30> C         -1.67790       -0.50200        0.35710
| 31> C         -3.10990       -0.43120        0.24050
| 32> C         -3.70390        0.54460       -0.56920
| 33> C         -5.07890        0.60100       -0.67490
| 34> C         -5.87410       -0.30240        0.01570
| 35> C         -5.29050       -1.27060        0.81960
| 36> C         -3.91730       -1.33930        0.93510
| 37> C         -0.67970        0.24860       -0.20720
| 38> H          1.50060        2.11590       -1.62920
| 39> H          3.54990        1.98470       -1.45770
| 40> H          5.95320        1.72000       -1.16990
| 41> H          6.85130       -0.05570        0.28690
| 42> H          5.30290       -1.57790        1.46490
| 43> H          2.87730       -1.32910        1.18930
| 44> H         -3.08380        1.24580       -1.10540
| 45> H         -5.53640        1.35340       -1.29960
| 46> H         -6.94940       -0.25210       -0.07240
| 47> H         -5.91100       -1.97270        1.35630
| 48> H         -3.45050       -2.08760        1.55660
| 49> *
| 50>
| 51>
| 52> $new_job
| 53> ! wb97x-d3 aug-cc-PVTZ RIJCOSX SP
| 54> %maxcore 4000
| 55> %basis
| 56>  AuxJ "aug-cc-PVTZ/JK"
| 57>  AuxC "aug-cc-PVTZ/C"
| 58>  newGTO H "cc-PVTZ" end
| 59>  newAuxJGTO H "cc-PVTZ/JK" end
| 60>  newAuxCGTO H "cc-PVTZ/C" end
| 61> end
| 62> %cpcm
| 63>  SMD true
| 64>  SMDsolvent "dimethylsulfoxide"
| 65> end
| 66> %pal nprocs 4 end
| 67> %tddft
| 68>  nroots 10
| 69>  maxdim 7
| 70> end
| 71> * xyzfile 0 1
| 72>
| 73>                          ****END OF INPUT****
 Total Charge           Charge          ....    0
 Multiplicity           Mult            ....    1
 Number of Electrons    NEL             ....  150
Dispersion correction           -0.013578163
FINAL SINGLE POINT ENERGY      -973.056185349590
Dispersion correction            ... done
Dispersion correction           -0.013567839
FINAL SINGLE POINT ENERGY      -973.057387311063
Dispersion correction            ... done
Dispersion correction           -0.013564837
FINAL SINGLE POINT ENERGY      -973.057717542680
Dispersion correction            ... done
FINAL SINGLE POINT ENERGY      -973.057725559901
FINAL SINGLE POINT ENERGY      -973.057757982774
FINAL SINGLE POINT ENERGY      -973.057784609623
FINAL SINGLE POINT ENERGY      -973.057950191971
FINAL SINGLE POINT ENERGY      -973.058032860855
FINAL SINGLE POINT ENERGY      -973.058059955956
Dispersion correction           -0.013630715
FINAL SINGLE POINT ENERGY      -973.058071085489
Dispersion correction            ... done
Dispersion correction           -0.013632198
FINAL SINGLE POINT ENERGY      -973.058076035780
Dispersion correction            ... done
                    ***********************HURRAY********************
Dispersion correction           -0.013631742
FINAL SINGLE POINT ENERGY      -973.058074839472

CARTESIAN COORDINATES (ANGSTROEM)
---------------------------------
  O     -1.079524    1.975802   -1.909161
  C     -0.376828    1.271166   -1.213148
  N      1.020610    1.332891   -1.185150
  C      1.594568    0.415238   -0.331371
  C      3.039080    0.312227   -0.163988
  C      3.889477    1.338582   -0.580690
  C      5.257028    1.223221   -0.404781
  C      5.791342    0.085911    0.184210
  C      4.951820   -0.937651    0.601363
  C      3.583528   -0.827687    0.430528
  C      0.570973   -0.283874    0.250304
  C      0.269111   -1.300897    1.219416
  O      0.905097   -2.024617    1.934106
  O     -1.140219   -1.368245    1.239178
  C     -1.673490   -0.464946    0.360815
  C     -3.120384   -0.410959    0.262532
  C     -3.710275    0.470467   -0.647037
  C     -5.087262    0.529200   -0.758109
  C     -5.885561   -0.285495    0.034366
  C     -5.303319   -1.161859    0.940605
  C     -3.925777   -1.227965    1.058040
  C     -0.675491    0.210055   -0.254693
  H      1.535519    1.949310   -1.794253
  H      3.490922    2.240592   -1.026284
  H      5.907872    2.025868   -0.726069
  H      6.861724   -0.002542    0.319146
  H      5.365109   -1.827181    1.058612
  H      2.932663   -1.628576    0.754609
  H     -3.084487    1.103675   -1.263100
  H     -5.539647    1.212777   -1.464822
  H     -6.963387   -0.236999   -0.054361
  H     -5.925211   -1.795793    1.559105
  H     -3.475382   -1.912094    1.763981

 Multiplicity           Mult            ....    1
 Number of Electrons    NEL             ....  150
 Basis Dimension        Dim             .... 1166

ORBITAL ENERGIES
----------------

  NO   OCC          E(Eh)            E(eV)
   0   2.0000     -19.304431      -525.3003
   1   2.0000     -19.234055      -523.3852
   2   2.0000     -19.224181      -523.1165
   3   2.0000     -14.477410      -393.9504
   4   2.0000     -10.425456      -283.6911
   5   2.0000     -10.407121      -283.1922
   6   2.0000     -10.381767      -282.5023
   7   2.0000     -10.370836      -282.2048
   8   2.0000     -10.311487      -280.5898
   9   2.0000     -10.309028      -280.5229
  10   2.0000     -10.295783      -280.1625
  11   2.0000     -10.293867      -280.1104
  12   2.0000     -10.293165      -280.0913
  13   2.0000     -10.292923      -280.0847
  14   2.0000     -10.292207      -280.0652
  15   2.0000     -10.291203      -280.0379
  16   2.0000     -10.290814      -280.0273
  17   2.0000     -10.289929      -280.0032
  18   2.0000     -10.288120      -279.9540
  19   2.0000     -10.287418      -279.9349
  20   2.0000     -10.286988      -279.9232
  21   2.0000     -10.286586      -279.9122
  22   2.0000      -1.248892       -33.9841
  23   2.0000      -1.180590       -32.1255
  24   2.0000      -1.164891       -31.6983
  25   2.0000      -1.102238       -29.9934
  26   2.0000      -0.994877       -27.0720
  27   2.0000      -0.993863       -27.0444
  28   2.0000      -0.949555       -25.8387
  29   2.0000      -0.913807       -24.8659
  30   2.0000      -0.901986       -24.5443
  31   2.0000      -0.875551       -23.8250
  32   2.0000      -0.873726       -23.7753
  33   2.0000      -0.841513       -22.8987
  34   2.0000      -0.808144       -21.9907
  35   2.0000      -0.789476       -21.4827
  36   2.0000      -0.745791       -20.2940
  37   2.0000      -0.728840       -19.8327
  38   2.0000      -0.723521       -19.6880
  39   2.0000      -0.716964       -19.5096
  40   2.0000      -0.692941       -18.8559
  41   2.0000      -0.654609       -17.8128
  42   2.0000      -0.646415       -17.5899
  43   2.0000      -0.613796       -16.7022
  44   2.0000      -0.612243       -16.6600
  45   2.0000      -0.602742       -16.4014
  46   2.0000      -0.602432       -16.3930
  47   2.0000      -0.583759       -15.8849
  48   2.0000      -0.565747       -15.3948
  49   2.0000      -0.563782       -15.3413
  50   2.0000      -0.559102       -15.2139
  51   2.0000      -0.554444       -15.0872
  52   2.0000      -0.551050       -14.9948
  53   2.0000      -0.537997       -14.6396
  54   2.0000      -0.532430       -14.4882
  55   2.0000      -0.527558       -14.3556
  56   2.0000      -0.526435       -14.3250
  57   2.0000      -0.507612       -13.8128
  58   2.0000      -0.497941       -13.5497
  59   2.0000      -0.497654       -13.5418
  60   2.0000      -0.491991       -13.3878
  61   2.0000      -0.467576       -12.7234
  62   2.0000      -0.453870       -12.3504
  63   2.0000      -0.452929       -12.3248
  64   2.0000      -0.451677       -12.2908
  65   2.0000      -0.441729       -12.0201
  66   2.0000      -0.440117       -11.9762
  67   2.0000      -0.397317       -10.8115
  68   2.0000      -0.391637       -10.6570
  69   2.0000      -0.372861       -10.1461
  70   2.0000      -0.361725        -9.8430
  71   2.0000      -0.356834        -9.7099
  72   2.0000      -0.352848        -9.6015
  73   2.0000      -0.351660        -9.5692
  74   2.0000      -0.284124        -7.7314
  75   0.0000      -0.039707        -1.0805
  76   0.0000       0.025337         0.6894
  77   0.0000       0.050375         1.3708
  78   0.0000       0.051242         1.3944
  79   0.0000       0.051847         1.4108

MULLIKEN ATOMIC CHARGES
-----------------------
   0 O :   -0.983023
   1 C :   -0.210645
   2 N :   -0.380984
   3 C :    0.210918
   4 C :    2.203322
   5 C :   -0.765639
   6 C :   -0.560202
   7 C :   -0.141928
   8 C :   -0.546072
   9 C :   -0.519283
  10 C :    0.576359
  11 C :    0.245762
  12 O :   -1.028768
  13 O :   -0.776761
  14 C :    0.030363
  15 C :    2.472346
  16 C :   -0.515727
  17 C :   -0.625932
  18 C :   -0.197413
  19 C :   -0.623255
  20 C :   -0.736751
  21 C :    0.768153
  22 H :    0.110653
  23 H :    0.094165
  24 H :    0.251953
  25 H :    0.235356
  26 H :    0.235801
  27 H :    0.125211
  28 H :    0.182986
  29 H :    0.226950
  30 H :    0.242182
  31 H :    0.253179
  32 H :    0.146723
Sum of atomic charges:   -0.0000000

LOEWDIN ATOMIC CHARGES
----------------------
   0 O :    0.413642
   1 C :   -0.710415
   2 N :    0.433918
   3 C :   -0.262896
   4 C :   -0.293803
   5 C :   -0.038654
   6 C :   -0.110964
   7 C :   -0.125437
   8 C :   -0.105378
   9 C :   -0.037402
  10 C :   -0.185116
  11 C :   -0.780887
  12 O :    0.430560
  13 O :    0.614755
  14 C :   -0.364913
  15 C :   -0.304974
  16 C :   -0.039042
  17 C :   -0.107427
  18 C :   -0.127568
  19 C :   -0.112100
  20 C :   -0.040086
  21 C :   -0.173253
  22 H :    0.175113
  23 H :    0.197762
  24 H :    0.174559
  25 H :    0.174159
  26 H :    0.174571
  27 H :    0.207379
  28 H :    0.204201
  29 H :    0.174139
  30 H :    0.173675
  31 H :    0.173985
  32 H :    0.197898

  Mayer bond orders larger than 0.100000
B(  0-O ,  1-C ) :   0.7850 B(  0-O ,  2-N ) :  -0.2669 B(  0-O , 14-C ) :   0.1241
B(  0-O , 15-C ) :  -0.1147 B(  0-O , 21-C ) :   0.2985 B(  1-C ,  2-N ) :   1.3018
B(  1-C ,  3-C ) :   0.1330 B(  1-C , 10-C ) :  -0.2389 B(  1-C , 15-C ) :  -0.1020
B(  1-C , 21-C ) :   0.6036 B(  2-N ,  3-C ) :   0.5617 B(  2-N ,  4-C ) :  -0.2381
B(  2-N ,  5-C ) :   0.2456 B(  2-N ,  9-C ) :   0.1156 B(  2-N , 10-C ) :  -0.1775
B(  2-N , 14-C ) :   0.1375 B(  2-N , 21-C ) :  -0.6604 B(  2-N , 22-H ) :   1.1975
B(  3-C ,  4-C ) :   0.3669 B(  3-C ,  6-C ) :   0.1285 B(  3-C ,  8-C ) :   0.3259
B(  3-C , 10-C ) :   1.4236 B(  3-C , 11-C ) :  -0.2638 B(  3-C , 13-O ) :   0.1161
B(  3-C , 14-C ) :   0.1561 B(  3-C , 15-C ) :   0.1151 B(  3-C , 21-C ) :  -0.4874
B(  3-C , 22-H ) :  -0.2716 B(  3-C , 23-H ) :  -0.1014 B(  3-C , 27-H ) :  -0.1566
B(  4-C ,  5-C ) :   0.1819 B(  4-C ,  6-C ) :  -0.2478 B(  4-C ,  8-C ) :  -0.2891
B(  4-C ,  9-C ) :   0.5390 B(  4-C , 10-C ) :  -0.3251 B(  4-C , 23-H ) :  -0.1759
B(  4-C , 27-H ) :  -0.1426 B(  5-C ,  6-C ) :   1.2214 B(  5-C ,  9-C ) :  -0.1646
B(  5-C , 23-H ) :   1.2219 B(  6-C ,  7-C ) :   1.1408 B(  6-C ,  8-C ) :   0.1693
B(  6-C , 24-H ) :   0.9318 B(  7-C ,  8-C ) :   1.1480 B(  7-C , 25-H ) :   0.9533
B(  8-C ,  9-C ) :   1.1589 B(  8-C , 10-C ) :  -0.1657 B(  8-C , 26-H ) :   0.9610
B(  9-C , 10-C ) :   0.2572 B(  9-C , 21-C ) :  -0.1115 B(  9-C , 27-H ) :   1.1714
B( 10-C , 11-C ) :   0.9720 B( 10-C , 12-O ) :   0.2263 B( 10-C , 13-O ) :  -0.4706
B( 10-C , 14-C ) :  -0.5953 B( 10-C , 21-C ) :   1.3038 B( 11-C , 12-O ) :   0.7525
B( 11-C , 13-O ) :   1.1140 B( 11-C , 14-C ) :   0.3107 B( 11-C , 21-C ) :  -0.3584
B( 13-O , 14-C ) :   0.2687 B( 13-O , 15-C ) :  -0.1694 B( 13-O , 20-C ) :   0.2285
B( 13-O , 21-C ) :   0.2563 B( 14-C , 15-C ) :   0.3533 B( 14-C , 17-C ) :   0.3132
B( 14-C , 18-C ) :   0.1164 B( 14-C , 19-C ) :   0.1096 B( 14-C , 20-C ) :   0.3446
B( 14-C , 21-C ) :   1.4546 B( 14-C , 28-H ) :  -0.1468 B( 15-C , 16-C ) :   0.5005
B( 15-C , 17-C ) :  -0.3615 B( 15-C , 19-C ) :  -0.2664 B( 15-C , 20-C ) :   0.1096
B( 15-C , 21-C ) :  -0.4092 B( 15-C , 28-H ) :  -0.1726 B( 15-C , 32-H ) :  -0.1677
B( 16-C , 17-C ) :   1.2410 B( 16-C , 20-C ) :  -0.3125 B( 16-C , 21-C ) :   0.2346
B( 16-C , 28-H ) :   1.1813 B( 17-C , 18-C ) :   1.2010 B( 17-C , 19-C ) :   0.1784
B( 17-C , 21-C ) :  -0.1531 B( 17-C , 29-H ) :   0.9840 B( 18-C , 19-C ) :   1.1461
B( 18-C , 30-H ) :   0.9377 B( 19-C , 20-C ) :   1.2194 B( 19-C , 31-H ) :   0.9310
B( 20-C , 32-H ) :   1.1578

-----------------------------------------------------------------------------
         ABSORPTION SPECTRUM VIA TRANSITION ELECTRIC DIPOLE MOMENTS
-----------------------------------------------------------------------------
State   Energy    Wavelength  fosc         T2        TX        TY        TZ
        (cm-1)      (nm)                 (au**2)    (au)      (au)      (au)
-----------------------------------------------------------------------------
   1   25832.7    387.1   0.964201406  12.28780   3.17941   1.13591  -0.94278
   2   35628.0    280.7   0.003631968   0.03356   0.18001  -0.02672  -0.02109
   3   36178.6    276.4   0.162906976   1.48240  -1.18400   0.16304  -0.23227
   4   38096.9    262.5   0.054172040   0.46812  -0.67881   0.05540  -0.06541
   5   39042.7    256.1   0.035406752   0.29855  -0.31351  -0.33961   0.29143
   6   39193.9    255.1   0.019663735   0.16517   0.06790  -0.36668   0.16155
   7   40878.0    244.6   0.000285747   0.00230  -0.00520   0.03556   0.03178
   8   42229.8    236.8   0.305632040   2.38263  -1.42741   0.39315  -0.43653
   9   44842.0    223.0   0.281952975   2.06999  -1.40254   0.19448  -0.25503
  10   45872.5    218.0   0.009522591   0.06834  -0.08353  -0.22267   0.10855

Dispersion correction           -0.013631742
FINAL SINGLE POINT ENERGY      -972.940372543189

DIPOLE MOMENT
-------------
                                X             Y             Z
Electronic contribution:     -0.47290      -0.69532       0.53059
Nuclear contribution   :      1.57444       1.59830      -1.33116
                        -----------------------------------------
Total Dipole Moment    :      1.10153       0.90298      -0.80057
                        -----------------------------------------
Magnitude (a.u.)       :      1.63391
Magnitude (Debye)      :      4.15306

Rotational constants in cm-1:     0.027351     0.004899     0.004170
Rotational constants in MHz :   819.956503   146.853892   125.015451

                             ****ORCA TERMINATED NORMALLY****
TOTAL RUN TIME: 0 days 8 hours 7 minutes 56 seconds 252 msec
