                         Program Version 5.0.2 -  RELEASE  -
|  1> ! x3lyp aug-cc-PVTZ RIJCOSX Opt
|  2> %maxcore 4000
|  3> %basis
|  4>  AuxJ "aug-cc-PVTZ/JK"
|  5>  AuxC "aug-cc-PVTZ/C"
|  6>  newGTO H "cc-PVTZ" end
|  7>  newAuxJGTO H "cc-PVTZ/JK" end
|  8>  newAuxCGTO H "cc-PVTZ/C" end
|  9> end
| 10> %cpcm
| 11>  SMD true
| 12>  SMDsolvent "dimethylsulfoxide"
| 13> end
| 14> %pal nprocs 4 end
| 15> * xyz 0 1
| 16> O         -1.10270        2.11530       -1.72360
| 17> C         -0.39350        1.36340       -1.09310
| 18> N          1.00170        1.42490       -1.09150
| 19> C          1.59780        0.46820       -0.30070
| 20> C          3.02770        0.34250       -0.15220
| 21> C          3.91620        1.19900       -0.81370
| 22> C          5.27940        1.05250       -0.65340
| 23> C          5.78420        0.05440        0.16560
| 24> C          4.91430       -0.79940        0.82620
| 25> C          3.54920       -0.66220        0.67320
| 26> C          0.57570       -0.27340        0.25950
| 27> C          0.26280       -1.37720        1.13530
| 28> O          0.94240       -2.13800        1.77370
| 29> O         -1.12690       -1.46380        1.15210
| 30> C         -1.67790       -0.50200        0.35710
| 31> C         -3.10990       -0.43120        0.24050
| 32> C         -3.70390        0.54460       -0.56920
| 33> C         -5.07890        0.60100       -0.67490
| 34> C         -5.87410       -0.30240        0.01570
| 35> C         -5.29050       -1.27060        0.81960
| 36> C         -3.91730       -1.33930        0.93510
| 37> C         -0.67970        0.24860       -0.20720
| 38> H          1.50060        2.11590       -1.62920
| 39> H          3.54990        1.98470       -1.45770
| 40> H          5.95320        1.72000       -1.16990
| 41> H          6.85130       -0.05570        0.28690
| 42> H          5.30290       -1.57790        1.46490
| 43> H          2.87730       -1.32910        1.18930
| 44> H         -3.08380        1.24580       -1.10540
| 45> H         -5.53640        1.35340       -1.29960
| 46> H         -6.94940       -0.25210       -0.07240
| 47> H         -5.91100       -1.97270        1.35630
| 48> H         -3.45050       -2.08760        1.55660
| 49> *
| 50>
| 51>
| 52> $new_job
| 53> ! x3lyp aug-cc-PVTZ RIJCOSX SP
| 54> %maxcore 4000
| 55> %basis
| 56>  AuxJ "aug-cc-PVTZ/JK"
| 57>  AuxC "aug-cc-PVTZ/C"
| 58>  newGTO H "cc-PVTZ" end
| 59>  newAuxJGTO H "cc-PVTZ/JK" end
| 60>  newAuxCGTO H "cc-PVTZ/C" end
| 61> end
| 62> %cpcm
| 63>  SMD true
| 64>  SMDsolvent "dimethylsulfoxide"
| 65> end
| 66> %pal nprocs 4 end
| 67> %tddft
| 68>  nroots 10
| 69>  maxdim 7
| 70> end
| 71> * xyzfile 0 1
| 72>
| 73>                          ****END OF INPUT****
 Total Charge           Charge          ....    0
 Multiplicity           Mult            ....    1
 Number of Electrons    NEL             ....  150
FINAL SINGLE POINT ENERGY      -972.549759519312
FINAL SINGLE POINT ENERGY      -972.551238393980
FINAL SINGLE POINT ENERGY      -972.551617034444
FINAL SINGLE POINT ENERGY      -972.551689106269
FINAL SINGLE POINT ENERGY      -972.551701997353
FINAL SINGLE POINT ENERGY      -972.551720920324
FINAL SINGLE POINT ENERGY      -972.551716116348
FINAL SINGLE POINT ENERGY      -972.551695326707
FINAL SINGLE POINT ENERGY      -972.551684760708
FINAL SINGLE POINT ENERGY      -972.551684352886
FINAL SINGLE POINT ENERGY      -972.551692621147
FINAL SINGLE POINT ENERGY      -972.551691640722
                    ***********************HURRAY********************
FINAL SINGLE POINT ENERGY      -972.551690264896

CARTESIAN COORDINATES (ANGSTROEM)
---------------------------------
  O     -1.082550    2.007233   -1.883587
  C     -0.377633    1.288059   -1.194294
  N      1.026168    1.349988   -1.170378
  C      1.608079    0.423769   -0.328108
  C      3.045915    0.318725   -0.159688
  C      3.914709    1.302891   -0.656603
  C      5.284128    1.182896   -0.482346
  C      5.812701    0.082689    0.184875
  C      4.960786   -0.898446    0.683080
  C      3.590546   -0.784057    0.516827
  C      0.568897   -0.285174    0.248769
  C      0.273313   -1.318916    1.196368
  O      0.907868   -2.059281    1.903725
  O     -1.151621   -1.392759    1.214697
  C     -1.688041   -0.470633    0.350685
  C     -3.127035   -0.413515    0.251544
  C     -3.731800    0.511669   -0.614973
  C     -5.111465    0.568184   -0.716808
  C     -5.907072   -0.290471    0.037786
  C     -5.315026   -1.209681    0.899006
  C     -3.935288   -1.274425    1.009713
  C     -0.673087    0.216956   -0.250157
  H      1.532818    1.980270   -1.774073
  H      3.530043    2.174956   -1.166296
  H      5.940544    1.951895   -0.866482
  H      6.882445   -0.008541    0.317452
  H      5.366079   -1.756390    1.202417
  H      2.937204   -1.549320    0.909562
  H     -3.114975    1.178246   -1.201955
  H     -5.570111    1.283368   -1.386360
  H     -6.984670   -0.243254   -0.045386
  H     -5.931098   -1.877703    1.485691
  H     -3.480570   -1.989626    1.679197

 Multiplicity           Mult            ....    1
 Number of Electrons    NEL             ....  150
 Basis Dimension        Dim             .... 1166

ORBITAL ENERGIES
----------------

  NO   OCC          E(Eh)            E(eV)
   0   2.0000     -19.224495      -523.1251
   1   2.0000     -19.158434      -521.3275
   2   2.0000     -19.147980      -521.0430
   3   2.0000     -14.397004      -391.7624
   4   2.0000     -10.336193      -281.2621
   5   2.0000     -10.318203      -280.7726
   6   2.0000     -10.293461      -280.0993
   7   2.0000     -10.282401      -279.7984
   8   2.0000     -10.227554      -278.3059
   9   2.0000     -10.224995      -278.2363
  10   2.0000     -10.211346      -277.8649
  11   2.0000     -10.211203      -277.8609
  12   2.0000     -10.210645      -277.8458
  13   2.0000     -10.208455      -277.7862
  14   2.0000     -10.207832      -277.7692
  15   2.0000     -10.206845      -277.7424
  16   2.0000     -10.206806      -277.7413
  17   2.0000     -10.206000      -277.7194
  18   2.0000     -10.204164      -277.6694
  19   2.0000     -10.203284      -277.6455
  20   2.0000     -10.203015      -277.6382
  21   2.0000     -10.202637      -277.6279
  22   2.0000      -1.129187       -30.7267
  23   2.0000      -1.065117       -28.9833
  24   2.0000      -1.051791       -28.6207
  25   2.0000      -0.987025       -26.8583
  26   2.0000      -0.878373       -23.9017
  27   2.0000      -0.877403       -23.8754
  28   2.0000      -0.835585       -22.7374
  29   2.0000      -0.800054       -21.7706
  30   2.0000      -0.789127       -21.4732
  31   2.0000      -0.762997       -20.7622
  32   2.0000      -0.761328       -20.7168
  33   2.0000      -0.729858       -19.8604
  34   2.0000      -0.698711       -19.0129
  35   2.0000      -0.681494       -18.5444
  36   2.0000      -0.638426       -17.3725
  37   2.0000      -0.622430       -16.9372
  38   2.0000      -0.617982       -16.8161
  39   2.0000      -0.611877       -16.6500
  40   2.0000      -0.587680       -15.9916
  41   2.0000      -0.550851       -14.9894
  42   2.0000      -0.543567       -14.7912
  43   2.0000      -0.513973       -13.9859
  44   2.0000      -0.511645       -13.9226
  45   2.0000      -0.501897       -13.6573
  46   2.0000      -0.493306       -13.4235
  47   2.0000      -0.485099       -13.2002
  48   2.0000      -0.467594       -12.7239
  49   2.0000      -0.465756       -12.6739
  50   2.0000      -0.459010       -12.4903
  51   2.0000      -0.454407       -12.3650
  52   2.0000      -0.451040       -12.2734
  53   2.0000      -0.441906       -12.0249
  54   2.0000      -0.437168       -11.8960
  55   2.0000      -0.431910       -11.7529
  56   2.0000      -0.431262       -11.7352
  57   2.0000      -0.405556       -11.0357
  58   2.0000      -0.402049       -10.9403
  59   2.0000      -0.400488       -10.8978
  60   2.0000      -0.392435       -10.6787
  61   2.0000      -0.368767       -10.0347
  62   2.0000      -0.365054        -9.9336
  63   2.0000      -0.363140        -9.8815
  64   2.0000      -0.355723        -9.6797
  65   2.0000      -0.352147        -9.5824
  66   2.0000      -0.350377        -9.5342
  67   2.0000      -0.303506        -8.2588
  68   2.0000      -0.300516        -8.1775
  69   2.0000      -0.281754        -7.6669
  70   2.0000      -0.276401        -7.5213
  71   2.0000      -0.274457        -7.4683
  72   2.0000      -0.268347        -7.3021
  73   2.0000      -0.267281        -7.2731
  74   2.0000      -0.209788        -5.7086
  75   0.0000      -0.101727        -2.7681
  76   0.0000      -0.047490        -1.2923
  77   0.0000      -0.018362        -0.4997
  78   0.0000      -0.016504        -0.4491
  79   0.0000      -0.001972        -0.0537

MULLIKEN ATOMIC CHARGES
-----------------------
   0 O :   -0.921153
   1 C :   -0.219224
   2 N :   -0.335187
   3 C :    0.156652
   4 C :    1.990822
   5 C :   -0.631072
   6 C :   -0.546872
   7 C :   -0.173483
   8 C :   -0.552042
   9 C :   -0.344103
  10 C :    0.664924
  11 C :    0.255955
  12 O :   -0.952396
  13 O :   -0.806977
  14 C :    0.117675
  15 C :    2.096362
  16 C :   -0.320169
  17 C :   -0.614430
  18 C :   -0.201387
  19 C :   -0.632311
  20 C :   -0.551998
  21 C :    0.758095
  22 H :    0.089177
  23 H :    0.070153
  24 H :    0.219569
  25 H :    0.209687
  26 H :    0.201492
  27 H :    0.071939
  28 H :    0.148284
  29 H :    0.191396
  30 H :    0.213223
  31 H :    0.222080
  32 H :    0.125321
Sum of atomic charges:   -0.0000000

LOEWDIN ATOMIC CHARGES
----------------------
   0 O :    0.408523
   1 C :   -0.712960
   2 N :    0.431478
   3 C :   -0.257363
   4 C :   -0.285663
   5 C :   -0.036243
   6 C :   -0.110744
   7 C :   -0.123208
   8 C :   -0.104873
   9 C :   -0.033195
  10 C :   -0.181424
  11 C :   -0.779289
  12 O :    0.423060
  13 O :    0.609167
  14 C :   -0.364351
  15 C :   -0.299509
  16 C :   -0.034291
  17 C :   -0.107477
  18 C :   -0.125350
  19 C :   -0.111599
  20 C :   -0.038054
  21 C :   -0.170605
  22 H :    0.173997
  23 H :    0.194580
  24 H :    0.173474
  25 H :    0.172569
  26 H :    0.173454
  27 H :    0.202069
  28 H :    0.200328
  29 H :    0.172968
  30 H :    0.172083
  31 H :    0.172976
  32 H :    0.195472

  Mayer bond orders larger than 0.100000
B(  0-O ,  1-C ) :   0.7864 B(  0-O ,  2-N ) :  -0.2295 B(  0-O , 14-C ) :   0.1259
B(  0-O , 21-C ) :   0.3498 B(  1-C ,  2-N ) :   1.2461 B(  1-C , 10-C ) :  -0.1416
B(  1-C , 21-C ) :   0.5811 B(  2-N ,  3-C ) :   0.6925 B(  2-N ,  4-C ) :  -0.2246
B(  2-N ,  5-C ) :   0.1939 B(  2-N , 10-C ) :  -0.1513 B(  2-N , 14-C ) :   0.1017
B(  2-N , 21-C ) :  -0.5062 B(  2-N , 22-H ) :   1.1631 B(  3-C ,  4-C ) :   0.2178
B(  3-C ,  5-C ) :   0.1519 B(  3-C ,  6-C ) :   0.1059 B(  3-C ,  7-C ) :   0.1035
B(  3-C ,  8-C ) :   0.2354 B(  3-C , 10-C ) :   1.3937 B(  3-C , 11-C ) :  -0.1570
B(  3-C , 14-C ) :   0.1577 B(  3-C , 21-C ) :  -0.4827 B(  3-C , 22-H ) :  -0.2019
B(  3-C , 27-H ) :  -0.1468 B(  4-C ,  5-C ) :   0.4056 B(  4-C ,  6-C ) :  -0.1947
B(  4-C ,  7-C ) :  -0.1115 B(  4-C ,  8-C ) :  -0.2807 B(  4-C ,  9-C ) :   0.7426
B(  4-C , 10-C ) :  -0.2705 B(  4-C , 21-C ) :   0.1058 B(  4-C , 23-H ) :  -0.1112
B(  5-C ,  6-C ) :   1.2752 B(  5-C ,  9-C ) :  -0.2131 B(  5-C , 23-H ) :   1.1510
B(  6-C ,  7-C ) :   1.1974 B(  6-C ,  8-C ) :   0.1435 B(  6-C , 10-C ) :  -0.1325
B(  6-C , 24-H ) :   0.9349 B(  7-C ,  8-C ) :   1.2172 B(  7-C , 25-H ) :   0.9350
B(  8-C ,  9-C ) :   1.2241 B(  8-C , 10-C ) :  -0.1491 B(  8-C , 26-H ) :   0.9564
B(  9-C , 10-C ) :   0.3014 B(  9-C , 27-H ) :   1.1335 B( 10-C , 11-C ) :   0.9489
B( 10-C , 12-O ) :   0.2897 B( 10-C , 13-O ) :  -0.3628 B( 10-C , 14-C ) :  -0.6960
B( 10-C , 15-C ) :   0.1265 B( 10-C , 21-C ) :   1.1847 B( 10-C , 27-H ) :   0.1066
B( 11-C , 12-O ) :   0.7668 B( 11-C , 13-O ) :   1.0050 B( 11-C , 14-C ) :   0.3174
B( 11-C , 21-C ) :  -0.3266 B( 12-O , 14-C ) :   0.1061 B( 13-O , 14-C ) :   0.1539
B( 13-O , 20-C ) :   0.1480 B( 13-O , 21-C ) :   0.2868 B( 14-C , 15-C ) :   0.1266
B( 14-C , 17-C ) :   0.2598 B( 14-C , 18-C ) :   0.1537 B( 14-C , 20-C ) :   0.3173
B( 14-C , 21-C ) :   1.4239 B( 14-C , 28-H ) :  -0.1376 B( 15-C , 16-C ) :   0.7906
B( 15-C , 17-C ) :  -0.3582 B( 15-C , 18-C ) :  -0.1514 B( 15-C , 19-C ) :  -0.1894
B( 15-C , 20-C ) :   0.3502 B( 15-C , 21-C ) :  -0.3067 B( 15-C , 32-H ) :  -0.1095
B( 16-C , 17-C ) :   1.2719 B( 16-C , 20-C ) :  -0.2993 B( 16-C , 21-C ) :   0.2933
B( 16-C , 28-H ) :   1.1023 B( 17-C , 18-C ) :   1.2561 B( 17-C , 19-C ) :   0.1608
B( 17-C , 21-C ) :  -0.1660 B( 17-C , 29-H ) :   0.9692 B( 18-C , 19-C ) :   1.2042
B( 18-C , 30-H ) :   0.9236 B( 19-C , 20-C ) :   1.2333 B( 19-C , 31-H ) :   0.9329
B( 20-C , 32-H ) :   1.0952 B( 21-C , 28-H ) :   0.1151

-----------------------------------------------------------------------------
         ABSORPTION SPECTRUM VIA TRANSITION ELECTRIC DIPOLE MOMENTS
-----------------------------------------------------------------------------
State   Energy    Wavelength  fosc         T2        TX        TY        TZ
        (cm-1)      (nm)                 (au**2)    (au)      (au)      (au)
-----------------------------------------------------------------------------
   1   22941.2    435.9   1.077821878  15.46704   3.70883   1.03685  -0.79785
   2   30542.2    327.4   0.003682366   0.03969  -0.19352  -0.01607   0.04456
   3   30726.9    325.4   0.033948280   0.36373   0.59912  -0.00296   0.06912
   4   31363.8    318.8   0.011790444   0.12376   0.27491  -0.12812   0.17824
   5   31592.7    316.5   0.039419444   0.41077  -0.45466  -0.38352   0.23868
   6   32979.6    303.2   0.270879718   2.70400   1.57738  -0.33206   0.32499
   7   35155.8    284.4   0.025602515   0.23975  -0.46359   0.09286  -0.12732
   8   35534.5    281.4   0.008717987   0.08077  -0.27724   0.05478  -0.03006
   9   36982.3    270.4   0.010137772   0.09025  -0.19320   0.19783  -0.11740
  10   37255.0    268.4   0.052648819   0.46524   0.67490   0.09803   0.01208

FINAL SINGLE POINT ENERGY      -972.447162570177

DIPOLE MOMENT
-------------
                                X             Y             Z
Electronic contribution:     -0.47222      -0.68861       0.48991
Nuclear contribution   :      1.57825       1.62054      -1.29213
                        -----------------------------------------
Total Dipole Moment    :      1.10602       0.93193      -0.80222
                        -----------------------------------------
Magnitude (a.u.)       :      1.65389
Magnitude (Debye)      :      4.20385

Rotational constants in cm-1:     0.027279     0.004868     0.004138
Rotational constants in MHz :   817.802100   145.927340   124.057137

                             ****ORCA TERMINATED NORMALLY****
TOTAL RUN TIME: 0 days 6 hours 32 minutes 27 seconds 112 msec
