                         Program Version 5.0.2 -  RELEASE  -
|  1> ! b3lyp aug-cc-PVTZ RIJCOSX Opt
|  2> %maxcore 4000
|  3> %basis
|  4>  AuxJ "aug-cc-PVTZ/JK"
|  5>  AuxC "aug-cc-PVTZ/C"
|  6>  newGTO H "cc-PVTZ" end
|  7>  newAuxJGTO H "cc-PVTZ/JK" end
|  8>  newAuxCGTO H "cc-PVTZ/C" end
|  9> end
| 10> %cpcm
| 11>  SMD true
| 12>  SMDsolvent "acetonitrile"
| 13> end
| 14> %pal nprocs 4 end
| 15> * xyz 0 1
| 16> C         -4.57040       -0.46150        0.41150
| 17> C         -4.02030        0.49180       -0.42940
| 18> C         -2.64950        0.61520       -0.54150
| 19> C         -1.79710       -0.21660        0.18870
| 20> C         -0.35690       -0.10750        0.08880
| 21> P          0.74210       -1.10260        0.96210
| 22> C          2.18870       -0.32020        0.26940
| 23> C          3.50480       -0.67740        0.58050
| 24> C          4.55840       -0.01500       -0.00560
| 25> C          4.32660        1.01730       -0.91390
| 26> C          3.04000        1.38880       -1.23760
| 27> C          1.97300        0.72160       -0.64740
| 28> S          0.31300        1.10370       -0.97940
| 29> C         -2.36710       -1.17440        1.03350
| 30> C         -3.73620       -1.29410        1.14250
| 31> H         -5.64250       -0.55610        0.49770
| 32> H         -4.66370        1.14380       -1.00180
| 33> H         -2.22950        1.36200       -1.20020
| 34> H          3.67680       -1.47810        1.28510
| 35> H          5.57280       -0.29380        0.23730
| 36> H          5.16140        1.52990       -1.36750
| 37> H          2.84950        2.18640       -1.93950
| 38> H         -1.71510       -1.82300        1.60290
| 39> H         -4.15830       -2.03970        1.80010
| 40> *
| 41>
| 42>
| 43> $new_job
| 44> ! b3lyp aug-cc-PVTZ RIJCOSX SP
| 45> %maxcore 4000
| 46> %basis
| 47>  AuxJ "aug-cc-PVTZ/JK"
| 48>  AuxC "aug-cc-PVTZ/C"
| 49>  newGTO H "cc-PVTZ" end
| 50>  newAuxJGTO H "cc-PVTZ/JK" end
| 51>  newAuxCGTO H "cc-PVTZ/C" end
| 52> end
| 53> %cpcm
| 54>  SMD true
| 55>  SMDsolvent "acetonitrile"
| 56> end
| 57> %pal nprocs 4 end
| 58> %tddft
| 59>  nroots 10
| 60>  maxdim 7
| 61> end
| 62> * xyzfile 0 1
| 63>
| 64>                          ****END OF INPUT****
 Total Charge           Charge          ....    0
 Multiplicity           Mult            ....    1
 Number of Electrons    NEL             ....  118
FINAL SINGLE POINT ENERGY     -1240.163270885414
FINAL SINGLE POINT ENERGY     -1240.164870689782
FINAL SINGLE POINT ENERGY     -1240.164975075339
FINAL SINGLE POINT ENERGY     -1240.164718257209
FINAL SINGLE POINT ENERGY     -1240.165014355288
FINAL SINGLE POINT ENERGY     -1240.165023730102
FINAL SINGLE POINT ENERGY     -1240.165038632873
FINAL SINGLE POINT ENERGY     -1240.165083294369
FINAL SINGLE POINT ENERGY     -1240.165087264309
FINAL SINGLE POINT ENERGY     -1240.165218202261
FINAL SINGLE POINT ENERGY     -1240.165528541322
FINAL SINGLE POINT ENERGY     -1240.165685651185
FINAL SINGLE POINT ENERGY     -1240.165604422045
FINAL SINGLE POINT ENERGY     -1240.165743930725
FINAL SINGLE POINT ENERGY     -1240.165751607997
                    ***********************HURRAY********************
FINAL SINGLE POINT ENERGY     -1240.165753191161

CARTESIAN COORDINATES (ANGSTROEM)
---------------------------------
  C     -4.611429   -0.453696    0.411034
  C     -4.041838    0.678218   -0.163094
  C     -2.661775    0.794781   -0.265731
  C     -1.817160   -0.224690    0.200658
  C     -0.354147   -0.112340    0.117288
  P      0.755842   -0.802631    1.237453
  C      2.218717   -0.191368    0.400089
  C      3.543796   -0.409548    0.817924
  C      4.595955    0.123210    0.097910
  C      4.355571    0.886233   -1.054548
  C      3.063565    1.119837   -1.489560
  C      2.000033    0.579382   -0.759211
  S      0.326596    0.796875   -1.203897
  C     -2.407247   -1.365332    0.768998
  C     -3.786209   -1.473410    0.877873
  H     -5.686896   -0.542808    0.490681
  H     -4.671923    1.479339   -0.527222
  H     -2.240380    1.696683   -0.690165
  H      3.734843   -0.996099    1.707867
  H      5.613274   -0.048014    0.424576
  H      5.187475    1.298023   -1.610590
  H      2.881175    1.709854   -2.378317
  H     -1.779759   -2.178645    1.108733
  H     -4.217580   -2.363354    1.317550

 Multiplicity           Mult            ....    1
 Number of Electrons    NEL             ....  118
 Basis Dimension        Dim             ....  824

ORBITAL ENERGIES
----------------

  NO   OCC          E(Eh)            E(eV)
   0   2.0000     -88.924051     -2419.7464
   1   2.0000     -77.076603     -2097.3610
   2   2.0000     -10.227321      -278.2996
   3   2.0000     -10.218503      -278.0596
   4   2.0000     -10.201044      -277.5845
   5   2.0000     -10.192774      -277.3595
   6   2.0000     -10.185148      -277.1520
   7   2.0000     -10.182429      -277.0780
   8   2.0000     -10.180781      -277.0331
   9   2.0000     -10.180117      -277.0151
  10   2.0000     -10.179811      -277.0067
  11   2.0000     -10.177861      -276.9537
  12   2.0000     -10.177446      -276.9424
  13   2.0000     -10.176938      -276.9286
  14   2.0000     -10.176846      -276.9261
  15   2.0000      -7.975172      -217.0155
  16   2.0000      -6.542385      -178.0274
  17   2.0000      -5.938891      -161.6054
  18   2.0000      -5.935227      -161.5057
  19   2.0000      -5.932370      -161.4280
  20   2.0000      -4.704284      -128.0101
  21   2.0000      -4.703510      -127.9890
  22   2.0000      -4.700723      -127.9132
  23   2.0000      -0.887134       -24.1401
  24   2.0000      -0.866366       -23.5750
  25   2.0000      -0.827410       -22.5150
  26   2.0000      -0.773455       -21.0468
  27   2.0000      -0.761466       -20.7205
  28   2.0000      -0.751552       -20.4508
  29   2.0000      -0.721659       -19.6373
  30   2.0000      -0.682840       -18.5810
  31   2.0000      -0.629007       -17.1161
  32   2.0000      -0.611940       -16.6517
  33   2.0000      -0.597578       -16.2609
  34   2.0000      -0.576231       -15.6800
  35   2.0000      -0.554048       -15.0764
  36   2.0000      -0.512327       -13.9411
  37   2.0000      -0.481391       -13.0993
  38   2.0000      -0.473778       -12.8922
  39   2.0000      -0.468067       -12.7367
  40   2.0000      -0.447270       -12.1708
  41   2.0000      -0.443436       -12.0665
  42   2.0000      -0.427649       -11.6369
  43   2.0000      -0.422729       -11.5031
  44   2.0000      -0.407568       -11.0905
  45   2.0000      -0.404468       -11.0061
  46   2.0000      -0.385154       -10.4806
  47   2.0000      -0.381358       -10.3773
  48   2.0000      -0.357845        -9.7375
  49   2.0000      -0.350326        -9.5329
  50   2.0000      -0.346163        -9.4196
  51   2.0000      -0.338287        -9.2052
  52   2.0000      -0.333821        -9.0837
  53   2.0000      -0.288368        -7.8469
  54   2.0000      -0.279514        -7.6060
  55   2.0000      -0.274949        -7.4817
  56   2.0000      -0.262018        -7.1299
  57   2.0000      -0.238586        -6.4923
  58   2.0000      -0.215075        -5.8525
  59   0.0000      -0.074667        -2.0318
  60   0.0000      -0.024687        -0.6718
  61   0.0000      -0.021339        -0.5807
  62   0.0000      -0.014758        -0.4016
  63   0.0000      -0.002252        -0.0613

MULLIKEN ATOMIC CHARGES
-----------------------
   0 C :   -0.134003
   1 C :   -0.343193
   2 C :   -0.544425
   3 C :    1.664516
   4 C :   -0.091164
   5 P :   -0.532337
   6 C :    0.663281
   7 C :   -0.524667
   8 C :   -0.469805
   9 C :   -0.241009
  10 C :   -0.778057
  11 C :    0.689793
  12 S :   -0.002941
  13 C :   -0.545161
  14 C :   -0.403211
  15 H :    0.217093
  16 H :    0.208892
  17 H :    0.081718
  18 H :    0.174685
  19 H :    0.208498
  20 H :    0.206014
  21 H :    0.175076
  22 H :    0.114011
  23 H :    0.206395
Sum of atomic charges:    0.0000000

LOEWDIN ATOMIC CHARGES
----------------------
   0 C :   -0.138237
   1 C :   -0.125779
   2 C :   -0.091948
   3 C :   -0.507087
   4 C :   -0.892725
   5 P :    0.997664
   6 C :   -0.619047
   7 C :   -0.132710
   8 C :   -0.132119
   9 C :   -0.132025
  10 C :   -0.115672
  11 C :   -0.717942
  12 S :    1.218268
  13 C :   -0.092541
  14 C :   -0.124245
  15 H :    0.169252
  16 H :    0.171473
  17 H :    0.192357
  18 H :    0.183084
  19 H :    0.170009
  20 H :    0.171286
  21 H :    0.181508
  22 H :    0.195664
  23 H :    0.171513

  Mayer bond orders larger than 0.100000
B(  0-C ,  1-C ) :   1.1991 B(  0-C , 14-C ) :   1.1901 B(  0-C , 15-H ) :   0.9276
B(  1-C ,  2-C ) :   1.1616 B(  1-C , 16-H ) :   0.9500 B(  2-C ,  3-C ) :   0.6173
B(  2-C ,  4-C ) :   0.3214 B(  2-C , 17-H ) :   1.1410 B(  3-C ,  5-P ) :  -0.1674
B(  3-C , 13-C ) :   0.6181 B(  3-C , 17-H ) :  -0.1227 B(  3-C , 22-H ) :  -0.1072
B(  4-C ,  5-P ) :   1.3630 B(  4-C , 11-C ) :  -0.1149 B(  4-C , 12-S ) :   0.8932
B(  4-C , 13-C ) :   0.3155 B(  5-P ,  6-C ) :   0.5603 B(  5-P , 11-C ) :   0.3320
B(  6-C ,  7-C ) :   0.8676 B(  6-C , 10-C ) :   0.1432 B(  6-C , 11-C ) :   0.9803
B(  6-C , 12-S ) :   0.2609 B(  7-C ,  8-C ) :   1.1594 B(  7-C , 18-H ) :   0.9912
B(  8-C ,  9-C ) :   1.1410 B(  8-C , 10-C ) :   0.1639 B(  8-C , 19-H ) :   0.9571
B(  9-C , 10-C ) :   1.3222 B(  9-C , 11-C ) :  -0.1177 B(  9-C , 20-H ) :   0.9523
B( 10-C , 11-C ) :   0.7266 B( 10-C , 21-H ) :   0.9975 B( 11-C , 12-S ) :   0.5310
B( 13-C , 14-C ) :   1.1669 B( 13-C , 22-H ) :   1.1105 B( 14-C , 23-H ) :   0.9569

-----------------------------------------------------------------------------
         ABSORPTION SPECTRUM VIA TRANSITION ELECTRIC DIPOLE MOMENTS
-----------------------------------------------------------------------------
State   Energy    Wavelength  fosc         T2        TX        TY        TZ
        (cm-1)      (nm)                 (au**2)    (au)      (au)      (au)
-----------------------------------------------------------------------------
   1   29052.7    344.2   0.462212943   5.23759  -2.20097   0.25641  -0.57234
   2   31688.8    315.6   0.322771483   3.35324   1.72450   0.37172  -0.49110
   3   34879.5    286.7   0.015725650   0.14843  -0.26051  -0.25654   0.12146
   4   36568.9    273.5   0.055273525   0.49760  -0.64851   0.26541   0.08121
   5   37129.9    269.3   0.019986702   0.17721  -0.25461  -0.26166   0.20957
   6   37301.9    268.1   0.003857487   0.03404   0.08718   0.04704   0.15566
   7   38002.5    263.1   0.102542240   0.88831  -0.92675  -0.15095   0.08165
   8   40403.0    247.5   0.055344540   0.45096  -0.58509  -0.09173   0.31658
   9   40763.7    245.3   0.030845454   0.24911  -0.25288  -0.28435   0.32297
  10   41633.8    240.2   0.019419098   0.15355   0.35673   0.16189  -0.00934

FINAL SINGLE POINT ENERGY     -1240.033379602101

DIPOLE MOMENT
-------------
                                X             Y             Z
Electronic contribution:      2.96786      -0.45692       0.76202
Nuclear contribution   :     -2.90763       0.74047      -1.18797
                        -----------------------------------------
Total Dipole Moment    :      0.06023       0.28355      -0.42595
                        -----------------------------------------
Magnitude (a.u.)       :      0.51523
Magnitude (Debye)      :      1.30960

Rotational constants in cm-1:     0.053976     0.008874     0.007744
Rotational constants in MHz :  1618.170828   266.034839   232.151816

                             ****ORCA TERMINATED NORMALLY****
TOTAL RUN TIME: 0 days 3 hours 51 minutes 32 seconds 917 msec
