                         Program Version 5.0.2 -  RELEASE  -
|  1> ! m062x defgrid3 aug-cc-PVTZ RIJCOSX Opt
|  2> %maxcore 4000
|  3> %basis
|  4>  AuxJ "aug-cc-PVTZ/JK"
|  5>  AuxC "aug-cc-PVTZ/C"
|  6>  newGTO H "cc-PVTZ" end
|  7>  newAuxJGTO H "cc-PVTZ/JK" end
|  8>  newAuxCGTO H "cc-PVTZ/C" end
|  9> end
| 10> %cpcm
| 11>  SMD true
| 12>  SMDsolvent "acetonitrile"
| 13> end
| 14> %pal nprocs 4 end
| 15> * xyz 0 1
| 16> C         -4.57040       -0.46150        0.41150
| 17> C         -4.02030        0.49180       -0.42940
| 18> C         -2.64950        0.61520       -0.54150
| 19> C         -1.79710       -0.21660        0.18870
| 20> C         -0.35690       -0.10750        0.08880
| 21> P          0.74210       -1.10260        0.96210
| 22> C          2.18870       -0.32020        0.26940
| 23> C          3.50480       -0.67740        0.58050
| 24> C          4.55840       -0.01500       -0.00560
| 25> C          4.32660        1.01730       -0.91390
| 26> C          3.04000        1.38880       -1.23760
| 27> C          1.97300        0.72160       -0.64740
| 28> S          0.31300        1.10370       -0.97940
| 29> C         -2.36710       -1.17440        1.03350
| 30> C         -3.73620       -1.29410        1.14250
| 31> H         -5.64250       -0.55610        0.49770
| 32> H         -4.66370        1.14380       -1.00180
| 33> H         -2.22950        1.36200       -1.20020
| 34> H          3.67680       -1.47810        1.28510
| 35> H          5.57280       -0.29380        0.23730
| 36> H          5.16140        1.52990       -1.36750
| 37> H          2.84950        2.18640       -1.93950
| 38> H         -1.71510       -1.82300        1.60290
| 39> H         -4.15830       -2.03970        1.80010
| 40> *
| 41>
| 42>
| 43> $new_job
| 44> ! m062x defgrid3 aug-cc-PVTZ RIJCOSX SP
| 45> %maxcore 4000
| 46> %basis
| 47>  AuxJ "aug-cc-PVTZ/JK"
| 48>  AuxC "aug-cc-PVTZ/C"
| 49>  newGTO H "cc-PVTZ" end
| 50>  newAuxJGTO H "cc-PVTZ/JK" end
| 51>  newAuxCGTO H "cc-PVTZ/C" end
| 52> end
| 53> %cpcm
| 54>  SMD true
| 55>  SMDsolvent "acetonitrile"
| 56> end
| 57> %pal nprocs 4 end
| 58> %tddft
| 59>  nroots 10
| 60>  maxdim 7
| 61> end
| 62> * xyzfile 0 1
| 63>
| 64>                          ****END OF INPUT****
 Total Charge           Charge          ....    0
 Multiplicity           Mult            ....    1
 Number of Electrons    NEL             ....  118
FINAL SINGLE POINT ENERGY     -1240.335286707577
FINAL SINGLE POINT ENERGY     -1240.336374261244
FINAL SINGLE POINT ENERGY     -1240.336410125665
FINAL SINGLE POINT ENERGY     -1240.336371506831
FINAL SINGLE POINT ENERGY     -1240.336550275218
FINAL SINGLE POINT ENERGY     -1240.336553613634
FINAL SINGLE POINT ENERGY     -1240.336561462010
                    ***********************HURRAY********************
FINAL SINGLE POINT ENERGY     -1240.336562548104

CARTESIAN COORDINATES (ANGSTROEM)
---------------------------------
  C     -4.600033   -0.455553    0.402503
  C     -4.035505    0.492804   -0.438110
  C     -2.656482    0.607851   -0.538762
  C     -1.810317   -0.224930    0.200219
  C     -0.342519   -0.123089    0.108126
  P      0.764901   -1.106804    0.964077
  C      2.215063   -0.328254    0.274754
  C      3.540823   -0.682201    0.576833
  C      4.586021   -0.009420   -0.016860
  C      4.338179    1.031046   -0.924367
  C      3.047636    1.399512   -1.239925
  C      1.989380    0.713807   -0.635318
  S      0.324919    1.078080   -0.946711
  C     -2.395682   -1.177287    1.044926
  C     -3.771009   -1.290653    1.144259
  H     -5.675238   -0.544808    0.480648
  H     -4.667845    1.149120   -1.021037
  H     -2.247576    1.357565   -1.203836
  H      3.732548   -1.485787    1.277031
  H      5.606046   -0.283356    0.216794
  H      5.167929    1.551818   -1.383206
  H      2.856027    2.202414   -1.939871
  H     -1.768178   -1.836973    1.630664
  H     -4.198589   -2.034404    1.803468

 Multiplicity           Mult            ....    1
 Number of Electrons    NEL             ....  118
 Basis Dimension        Dim             ....  824

ORBITAL ENERGIES
----------------

  NO   OCC          E(Eh)            E(eV)
   0   2.0000     -89.968798     -2448.1754
   1   2.0000     -78.051766     -2123.8965
   2   2.0000     -10.596883      -288.3558
   3   2.0000     -10.587522      -288.1011
   4   2.0000     -10.570321      -287.6331
   5   2.0000     -10.560146      -287.3562
   6   2.0000     -10.554060      -287.1906
   7   2.0000     -10.551771      -287.1283
   8   2.0000     -10.549888      -287.0771
   9   2.0000     -10.549107      -287.0558
  10   2.0000     -10.548578      -287.0414
  11   2.0000     -10.545979      -286.9707
  12   2.0000     -10.545463      -286.9566
  13   2.0000     -10.545154      -286.9482
  14   2.0000     -10.544757      -286.9374
  15   2.0000      -8.304215      -225.9692
  16   2.0000      -6.851006      -186.4254
  17   2.0000      -6.223625      -169.3535
  18   2.0000      -6.221425      -169.2936
  19   2.0000      -6.219711      -169.2469
  20   2.0000      -4.965632      -135.1217
  21   2.0000      -4.965284      -135.1123
  22   2.0000      -4.963566      -135.0655
  23   2.0000      -0.996238       -27.1090
  24   2.0000      -0.975662       -26.5491
  25   2.0000      -0.930672       -25.3249
  26   2.0000      -0.873828       -23.7781
  27   2.0000      -0.861773       -23.4500
  28   2.0000      -0.852046       -23.1853
  29   2.0000      -0.815866       -22.2008
  30   2.0000      -0.773651       -21.0521
  31   2.0000      -0.715434       -19.4680
  32   2.0000      -0.698998       -19.0207
  33   2.0000      -0.681945       -18.5567
  34   2.0000      -0.655797       -17.8451
  35   2.0000      -0.633282       -17.2325
  36   2.0000      -0.588954       -16.0263
  37   2.0000      -0.556023       -15.1302
  38   2.0000      -0.545497       -14.8437
  39   2.0000      -0.539339       -14.6762
  40   2.0000      -0.515212       -14.0196
  41   2.0000      -0.513744       -13.9797
  42   2.0000      -0.494304       -13.4507
  43   2.0000      -0.485078       -13.1996
  44   2.0000      -0.484838       -13.1931
  45   2.0000      -0.472256       -12.8507
  46   2.0000      -0.458925       -12.4880
  47   2.0000      -0.445168       -12.1136
  48   2.0000      -0.417857       -11.3705
  49   2.0000      -0.409705       -11.1486
  50   2.0000      -0.406759       -11.0685
  51   2.0000      -0.402459       -10.9515
  52   2.0000      -0.389871       -10.6089
  53   2.0000      -0.349992        -9.5238
  54   2.0000      -0.335177        -9.1206
  55   2.0000      -0.331503        -9.0207
  56   2.0000      -0.318150        -8.6573
  57   2.0000      -0.287261        -7.8168
  58   2.0000      -0.259612        -7.0644
  59   0.0000      -0.053913        -1.4671
  60   0.0000       0.003139         0.0854
  61   0.0000       0.006211         0.1690
  62   0.0000       0.006586         0.1792
  63   0.0000       0.008720         0.2373

MULLIKEN ATOMIC CHARGES
-----------------------
   0 C :   -0.029038
   1 C :   -0.612274
   2 C :   -0.362898
   3 C :    2.268752
   4 C :    0.115197
   5 P :   -0.841966
   6 C :    1.034766
   7 C :   -0.661829
   8 C :   -0.499216
   9 C :   -0.296148
  10 C :   -0.838584
  11 C :    1.035676
  12 S :   -0.066498
  13 C :   -0.255349
  14 C :   -0.736114
  15 H :    0.126248
  16 H :    0.149316
  17 H :   -0.091750
  18 H :    0.104575
  19 H :    0.130207
  20 H :    0.139983
  21 H :    0.099873
  22 H :   -0.053218
  23 H :    0.140286
Sum of atomic charges:    0.0000000

LOEWDIN ATOMIC CHARGES
----------------------
   0 C :   -0.138476
   1 C :   -0.125254
   2 C :   -0.100851
   3 C :   -0.503807
   4 C :   -0.896379
   5 P :    1.009030
   6 C :   -0.626598
   7 C :   -0.131212
   8 C :   -0.130711
   9 C :   -0.130925
  10 C :   -0.113115
  11 C :   -0.734628
  12 S :    1.221904
  13 C :   -0.102155
  14 C :   -0.123863
  15 H :    0.170670
  16 H :    0.173018
  17 H :    0.195485
  18 H :    0.186016
  19 H :    0.171567
  20 H :    0.173239
  21 H :    0.184142
  22 H :    0.199837
  23 H :    0.173068

  Mayer bond orders larger than 0.100000
B(  0-C ,  1-C ) :   1.0946 B(  0-C ,  2-C ) :  -0.1262 B(  0-C , 13-C ) :  -0.1152
B(  0-C , 14-C ) :   1.0142 B(  0-C , 15-H ) :   1.0848 B(  0-C , 16-H ) :  -0.1012
B(  0-C , 23-H ) :  -0.1243 B(  1-C ,  2-C ) :   0.9534 B(  1-C ,  3-C ) :  -0.2732
B(  1-C ,  4-C ) :   0.1992 B(  1-C , 13-C ) :  -0.2088 B(  1-C , 14-C ) :   0.2799
B(  1-C , 16-H ) :   1.0667 B(  2-C ,  3-C ) :   0.2010 B(  2-C ,  4-C ) :   0.1855
B(  2-C , 12-S ) :   0.1465 B(  2-C , 14-C ) :  -0.1272 B(  2-C , 17-H ) :   1.4799
B(  3-C ,  4-C ) :   0.4537 B(  3-C ,  5-P ) :  -0.1136 B(  3-C , 13-C ) :   0.3357
B(  3-C , 14-C ) :  -0.2158 B(  3-C , 17-H ) :  -0.4455 B(  3-C , 22-H ) :  -0.3929
B(  4-C ,  5-P ) :   0.9898 B(  4-C , 12-S ) :   0.7003 B(  4-C , 13-C ) :   0.2458
B(  4-C , 14-C ) :   0.2607 B(  5-P ,  6-C ) :   0.6332 B(  5-P ,  7-C ) :   0.1476
B(  5-P , 11-C ) :   0.2935 B(  5-P , 12-S ) :   0.1022 B(  6-C ,  7-C ) :   0.4619
B(  6-C ,  8-C ) :  -0.1144 B(  6-C , 10-C ) :   0.1272 B(  6-C , 11-C ) :   0.7636
B(  6-C , 12-S ) :   0.1802 B(  6-C , 18-H ) :  -0.1656 B(  7-C ,  8-C ) :   1.0089
B(  7-C , 18-H ) :   1.2117 B(  7-C , 19-H ) :  -0.1118 B(  8-C ,  9-C ) :   0.9594
B(  8-C , 10-C ) :   0.1659 B(  8-C , 11-C ) :  -0.1876 B(  8-C , 12-S ) :   0.1089
B(  8-C , 19-H ) :   1.1019 B(  9-C , 10-C ) :   1.2587 B(  9-C , 11-C ) :  -0.1346
B(  9-C , 20-H ) :   1.0865 B(  9-C , 21-H ) :  -0.1061 B( 10-C , 11-C ) :   0.4091
B( 10-C , 21-H ) :   1.1924 B( 11-C , 12-S ) :   0.6920 B( 11-C , 21-H ) :  -0.1260
B( 13-C , 14-C ) :   0.8325 B( 13-C , 22-H ) :   1.4273 B( 14-C , 22-H ) :  -0.1192
B( 14-C , 23-H ) :   1.1040

-----------------------------------------------------------------------------
         ABSORPTION SPECTRUM VIA TRANSITION ELECTRIC DIPOLE MOMENTS
-----------------------------------------------------------------------------
State   Energy    Wavelength  fosc         T2        TX        TY        TZ
        (cm-1)      (nm)                 (au**2)    (au)      (au)      (au)
-----------------------------------------------------------------------------
   1   30368.2    329.3   0.611441101   6.62843  -2.51469   0.41990  -0.35843
   2   34248.8    292.0   0.194360044   1.86826  -1.13147  -0.57633   0.50584
   3   37507.9    266.6   0.010939024   0.09601  -0.00588  -0.20235  -0.23459
   4   39006.4    256.4   0.065802465   0.55537  -0.51710  -0.40163   0.35590
   5   40838.6    244.9   0.215026813   1.73340   1.27834   0.23493  -0.20991
   6   41049.2    243.6   0.000468585   0.00376   0.01749   0.04894   0.03251
   7   41967.3    238.3   0.153618923   1.20506   1.09764   0.01082  -0.01168
   8   43844.8    228.1   0.006598918   0.04955  -0.00516  -0.14838  -0.16585
   9   45038.3    222.0   0.015283177   0.11171  -0.14428   0.22444  -0.20131
  10   45813.2    218.3   0.109146020   0.78432  -0.78995   0.30144  -0.26351

FINAL SINGLE POINT ENERGY     -1240.198194969820

DIPOLE MOMENT
-------------
                                X             Y             Z
Electronic contribution:      3.05542      -0.71553       0.64426
Nuclear contribution   :     -2.93987       1.03521      -0.92743
                        -----------------------------------------
Total Dipole Moment    :      0.11554       0.31967      -0.28317
                        -----------------------------------------
Magnitude (a.u.)       :      0.44241
Magnitude (Debye)      :      1.12451

Rotational constants in cm-1:     0.054318     0.009008     0.007727
Rotational constants in MHz :  1628.420014   270.047282   231.635435

                             ****ORCA TERMINATED NORMALLY****
TOTAL RUN TIME: 0 days 3 hours 32 minutes 43 seconds 589 msec
