                         Program Version 5.0.2 -  RELEASE  -
|  1> ! pbe0 d3bj aug-cc-PVTZ RIJCOSX Opt
|  2> %maxcore 4000
|  3> %basis
|  4>  AuxJ "aug-cc-PVTZ/JK"
|  5>  AuxC "aug-cc-PVTZ/C"
|  6>  newGTO H "cc-PVTZ" end
|  7>  newAuxJGTO H "cc-PVTZ/JK" end
|  8>  newAuxCGTO H "cc-PVTZ/C" end
|  9> end
| 10> %cpcm
| 11>  SMD true
| 12>  SMDsolvent "acetonitrile"
| 13> end
| 14> %pal nprocs 4 end
| 15> * xyz 0 1
| 16> C         -4.57040       -0.46150        0.41150
| 17> C         -4.02030        0.49180       -0.42940
| 18> C         -2.64950        0.61520       -0.54150
| 19> C         -1.79710       -0.21660        0.18870
| 20> C         -0.35690       -0.10750        0.08880
| 21> P          0.74210       -1.10260        0.96210
| 22> C          2.18870       -0.32020        0.26940
| 23> C          3.50480       -0.67740        0.58050
| 24> C          4.55840       -0.01500       -0.00560
| 25> C          4.32660        1.01730       -0.91390
| 26> C          3.04000        1.38880       -1.23760
| 27> C          1.97300        0.72160       -0.64740
| 28> S          0.31300        1.10370       -0.97940
| 29> C         -2.36710       -1.17440        1.03350
| 30> C         -3.73620       -1.29410        1.14250
| 31> H         -5.64250       -0.55610        0.49770
| 32> H         -4.66370        1.14380       -1.00180
| 33> H         -2.22950        1.36200       -1.20020
| 34> H          3.67680       -1.47810        1.28510
| 35> H          5.57280       -0.29380        0.23730
| 36> H          5.16140        1.52990       -1.36750
| 37> H          2.84950        2.18640       -1.93950
| 38> H         -1.71510       -1.82300        1.60290
| 39> H         -4.15830       -2.03970        1.80010
| 40> *
| 41>
| 42>
| 43> $new_job
| 44> ! b2plyp aug-cc-PVTZ RIJCOSX SP
| 45> %maxcore 4000
| 46> %basis
| 47>  AuxJ "aug-cc-PVTZ/JK"
| 48>  AuxC "aug-cc-PVTZ/C"
| 49>  newGTO H "cc-PVTZ" end
| 50>  newAuxJGTO H "cc-PVTZ/JK" end
| 51>  newAuxCGTO H "cc-PVTZ/C" end
| 52> end
| 53> %cpcm
| 54>  SMD true
| 55>  SMDsolvent "acetonitrile"
| 56> end
| 57> %pal nprocs 4 end
| 58> %tddft
| 59>  nroots 10
| 60>  maxdim 7
| 61> end
| 62> * xyzfile 0 1
| 63>
| 64>                          ****END OF INPUT****
 Total Charge           Charge          ....    0
 Multiplicity           Mult            ....    1
 Number of Electrons    NEL             ....  118
Dispersion correction           -0.032184037
FINAL SINGLE POINT ENERGY     -1239.737881490697
Dispersion correction            ... done
Dispersion correction           -0.032104130
FINAL SINGLE POINT ENERGY     -1239.738718020193
Dispersion correction            ... done
Dispersion correction           -0.032081902
FINAL SINGLE POINT ENERGY     -1239.738828935553
Dispersion correction            ... done
FINAL SINGLE POINT ENERGY     -1239.738496007338
FINAL SINGLE POINT ENERGY     -1239.738886377814
FINAL SINGLE POINT ENERGY     -1239.738893797558
FINAL SINGLE POINT ENERGY     -1239.738904034079
FINAL SINGLE POINT ENERGY     -1239.738971031123
FINAL SINGLE POINT ENERGY     -1239.738920946795
FINAL SINGLE POINT ENERGY     -1239.739023356086
FINAL SINGLE POINT ENERGY     -1239.739158003858
FINAL SINGLE POINT ENERGY     -1239.739426781533
FINAL SINGLE POINT ENERGY     -1239.739471596106
FINAL SINGLE POINT ENERGY     -1239.739478820999
Dispersion correction            ... done
Dispersion correction           -0.032097404
FINAL SINGLE POINT ENERGY     -1239.739479218835
Dispersion correction            ... done
                    ***********************HURRAY********************
Dispersion correction           -0.032097830
FINAL SINGLE POINT ENERGY     -1239.739479081214

CARTESIAN COORDINATES (ANGSTROEM)
---------------------------------
  C     -4.587792   -0.448669    0.409604
  C     -4.020363    0.665731   -0.192228
  C     -2.643703    0.779659   -0.295959
  C     -1.805625   -0.225888    0.196076
  C     -0.348722   -0.116939    0.111838
  P      0.751531   -0.837778    1.211160
  C      2.203408   -0.209506    0.390794
  C      3.525826   -0.437241    0.799878
  C      4.572415    0.111720    0.091335
  C      4.329621    0.899709   -1.039857
  C      3.040686    1.144146   -1.465479
  C      1.982244    0.587756   -0.746033
  S      0.322142    0.816154   -1.175524
  C     -2.390412   -1.349135    0.791386
  C     -3.765650   -1.454290    0.902464
  H     -5.664549   -0.535736    0.490991
  H     -4.651905    1.457164   -0.577883
  H     -2.217854    1.670560   -0.743244
  H      3.717942   -1.045615    1.676349
  H      5.591935   -0.066713    0.411183
  H      5.161542    1.324578   -1.588367
  H      2.854239    1.755828   -2.340148
  H     -1.758005   -2.151986    1.152371
  H     -4.198450   -2.333008    1.365593

 Multiplicity           Mult            ....    1
 Number of Electrons    NEL             ....  118
 Basis Dimension        Dim             ....  824

ORBITAL ENERGIES
----------------

  NO   OCC          E(Eh)            E(eV)
   0   2.0000     -90.210362     -2454.7487
   1   2.0000     -78.275617     -2129.9878
   2   2.0000     -10.674015      -290.4547
   3   2.0000     -10.662648      -290.1454
   4   2.0000     -10.643895      -289.6351
   5   2.0000     -10.635151      -289.3972
   6   2.0000     -10.628923      -289.2277
   7   2.0000     -10.626644      -289.1657
   8   2.0000     -10.624946      -289.1195
   9   2.0000     -10.624416      -289.1050
  10   2.0000     -10.623801      -289.0883
  11   2.0000     -10.621973      -289.0386
  12   2.0000     -10.621286      -289.0199
  13   2.0000     -10.620676      -289.0033
  14   2.0000     -10.620427      -288.9965
  15   2.0000      -8.399536      -228.5630
  16   2.0000      -6.932960      -188.6554
  17   2.0000      -6.246179      -169.9672
  18   2.0000      -6.243577      -169.8964
  19   2.0000      -6.241591      -169.8423
  20   2.0000      -4.983564      -135.6097
  21   2.0000      -4.982978      -135.5937
  22   2.0000      -4.981036      -135.5409
  23   2.0000      -1.016161       -27.6511
  24   2.0000      -0.994460       -27.0606
  25   2.0000      -0.948853       -25.8196
  26   2.0000      -0.890190       -24.2233
  27   2.0000      -0.877141       -23.8682
  28   2.0000      -0.866826       -23.5875
  29   2.0000      -0.830615       -22.6022
  30   2.0000      -0.785457       -21.3734
  31   2.0000      -0.725633       -19.7455
  32   2.0000      -0.707438       -19.2504
  33   2.0000      -0.689844       -18.7716
  34   2.0000      -0.665001       -18.0956
  35   2.0000      -0.637537       -17.3483
  36   2.0000      -0.591367       -16.0919
  37   2.0000      -0.557501       -15.1704
  38   2.0000      -0.550194       -14.9715
  39   2.0000      -0.544017       -14.8035
  40   2.0000      -0.520654       -14.1677
  41   2.0000      -0.516736       -14.0611
  42   2.0000      -0.497363       -13.5339
  43   2.0000      -0.493122       -13.4185
  44   2.0000      -0.475265       -12.9326
  45   2.0000      -0.469672       -12.7804
  46   2.0000      -0.447912       -12.1883
  47   2.0000      -0.443603       -12.0710
  48   2.0000      -0.420508       -11.4426
  49   2.0000      -0.413629       -11.2554
  50   2.0000      -0.407158       -11.0793
  51   2.0000      -0.394120       -10.7246
  52   2.0000      -0.390713       -10.6318
  53   2.0000      -0.332397        -9.0450
  54   2.0000      -0.328507        -8.9391
  55   2.0000      -0.314957        -8.5704
  56   2.0000      -0.299658        -8.1541
  57   2.0000      -0.272149        -7.4056
  58   2.0000      -0.244140        -6.6434
  59   0.0000      -0.030873        -0.8401
  60   0.0000       0.020343         0.5536
  61   0.0000       0.024659         0.6710
  62   0.0000       0.026645         0.7251
  63   0.0000       0.029212         0.7949

MULLIKEN ATOMIC CHARGES
-----------------------
   0 C :   -0.136101
   1 C :   -0.397185
   2 C :   -0.521020
   3 C :    1.760232
   4 C :   -0.074841
   5 P :   -0.698076
   6 C :    0.789276
   7 C :   -0.586048
   8 C :   -0.512978
   9 C :   -0.290523
  10 C :   -0.797791
  11 C :    0.753502
  12 S :   -0.081142
  13 C :   -0.547913
  14 C :   -0.473714
  15 H :    0.243062
  16 H :    0.234259
  17 H :    0.098585
  18 H :    0.199028
  19 H :    0.237218
  20 H :    0.229683
  21 H :    0.203756
  22 H :    0.140346
  23 H :    0.228381
Sum of atomic charges:    0.0000000

LOEWDIN ATOMIC CHARGES
----------------------
   0 C :   -0.139200
   1 C :   -0.126228
   2 C :   -0.093647
   3 C :   -0.515059
   4 C :   -0.902200
   5 P :    1.005761
   6 C :   -0.623745
   7 C :   -0.132767
   8 C :   -0.133378
   9 C :   -0.132958
  10 C :   -0.114695
  11 C :   -0.729527
  12 S :    1.229307
  13 C :   -0.094857
  14 C :   -0.124565
  15 H :    0.171529
  16 H :    0.173502
  17 H :    0.195422
  18 H :    0.185480
  19 H :    0.171969
  20 H :    0.173474
  21 H :    0.183792
  22 H :    0.199052
  23 H :    0.173540

  Mayer bond orders larger than 0.100000
B(  0-C ,  1-C ) :   1.1785 B(  0-C , 14-C ) :   1.1593 B(  0-C , 15-H ) :   0.9483
B(  1-C ,  2-C ) :   1.0946 B(  1-C , 16-H ) :   0.9708 B(  2-C ,  3-C ) :   0.5885
B(  2-C ,  4-C ) :   0.2672 B(  2-C , 13-C ) :   0.1090 B(  2-C , 17-H ) :   1.1672
B(  3-C ,  4-C ) :   0.1115 B(  3-C ,  5-P ) :  -0.2487 B(  3-C , 13-C ) :   0.5704
B(  3-C , 17-H ) :  -0.1273 B(  3-C , 22-H ) :  -0.1120 B(  4-C ,  5-P ) :   1.5004
B(  4-C , 11-C ) :  -0.1341 B(  4-C , 12-S ) :   0.9822 B(  4-C , 13-C ) :   0.2888
B(  5-P ,  6-C ) :   0.5644 B(  5-P , 11-C ) :   0.3284 B(  5-P , 13-C ) :   0.1028
B(  6-C ,  7-C ) :   0.8069 B(  6-C , 10-C ) :   0.1535 B(  6-C , 11-C ) :   1.0283
B(  6-C , 12-S ) :   0.2593 B(  7-C ,  8-C ) :   1.1355 B(  7-C , 18-H ) :   1.0097
B(  8-C ,  9-C ) :   1.0738 B(  8-C , 10-C ) :   0.1628 B(  8-C , 19-H ) :   0.9746
B(  9-C , 10-C ) :   1.3354 B(  9-C , 11-C ) :  -0.1361 B(  9-C , 20-H ) :   0.9772
B( 10-C , 11-C ) :   0.6622 B( 10-C , 21-H ) :   1.0062 B( 11-C , 12-S ) :   0.6318
B( 13-C , 14-C ) :   1.1225 B( 13-C , 22-H ) :   1.1276 B( 14-C , 23-H ) :   0.9822

MP2 TOTAL ENERGY:    -1239.899281002 Eh

-----------------------------------------------------------------------------
         ABSORPTION SPECTRUM VIA TRANSITION ELECTRIC DIPOLE MOMENTS
-----------------------------------------------------------------------------
State   Energy    Wavelength  fosc         T2        TX        TY        TZ
        (cm-1)      (nm)                 (au**2)    (au)      (au)      (au)
-----------------------------------------------------------------------------
   1   30202.4    331.1   0.592891217   6.46263   2.46274  -0.27294   0.56837
   2   32021.4    312.3   0.162450801   1.67016   1.00753   0.45896  -0.66663
   3   36525.0    273.8   0.021386000   0.19276   0.31143   0.27717  -0.13764
   4   38348.2    260.8   0.032441746   0.27851   0.40302  -0.27684  -0.19859
   5   39068.4    256.0   0.022349315   0.18833  -0.38972   0.12655  -0.14293
   6   38584.0    259.2   0.075331140   0.64275  -0.65281  -0.32951   0.32865
   7   40278.7    248.3   0.206836213   1.69054   1.22334   0.19243  -0.39616
   8   43047.0    232.3   0.009353707   0.07153  -0.17452  -0.12539  -0.15924
   9   41842.8    239.0   0.007974869   0.06274  -0.09912  -0.14626  -0.17756
  10   43025.5    232.4   0.077944519   0.59640   0.27950  -0.57620   0.43158

Dispersion correction           -0.030340034
FINAL SINGLE POINT ENERGY     -1239.000495495188

DIPOLE MOMENT
-------------
                                X             Y             Z
Electronic contribution:      2.95580      -0.51674       0.75574
Nuclear contribution   :     -2.87893       0.80668      -1.16276
                        -----------------------------------------
Total Dipole Moment    :      0.07687       0.28994      -0.40702
                        -----------------------------------------
Magnitude (a.u.)       :      0.50561
Magnitude (Debye)      :      1.28515

Rotational constants in cm-1:     0.054310     0.008992     0.007818
Rotational constants in MHz :  1628.178167   269.560069   234.363286

                             ****ORCA TERMINATED NORMALLY****
TOTAL RUN TIME: 0 days 3 hours 48 minutes 46 seconds 696 msec
