                         Program Version 5.0.2 -  RELEASE  -
|  1> ! pbe0 d3bj aug-cc-PVTZ RIJCOSX Opt
|  2> %maxcore 4000
|  3> %basis
|  4>  AuxJ "aug-cc-PVTZ/JK"
|  5>  AuxC "aug-cc-PVTZ/C"
|  6>  newGTO H "cc-PVTZ" end
|  7>  newAuxJGTO H "cc-PVTZ/JK" end
|  8>  newAuxCGTO H "cc-PVTZ/C" end
|  9> end
| 10> %cpcm
| 11>  SMD true
| 12>  SMDsolvent "acetonitrile"
| 13> end
| 14> %pal nprocs 4 end
| 15> * xyz 0 1
| 16> C         -4.57040       -0.46150        0.41150
| 17> C         -4.02030        0.49180       -0.42940
| 18> C         -2.64950        0.61520       -0.54150
| 19> C         -1.79710       -0.21660        0.18870
| 20> C         -0.35690       -0.10750        0.08880
| 21> P          0.74210       -1.10260        0.96210
| 22> C          2.18870       -0.32020        0.26940
| 23> C          3.50480       -0.67740        0.58050
| 24> C          4.55840       -0.01500       -0.00560
| 25> C          4.32660        1.01730       -0.91390
| 26> C          3.04000        1.38880       -1.23760
| 27> C          1.97300        0.72160       -0.64740
| 28> S          0.31300        1.10370       -0.97940
| 29> C         -2.36710       -1.17440        1.03350
| 30> C         -3.73620       -1.29410        1.14250
| 31> H         -5.64250       -0.55610        0.49770
| 32> H         -4.66370        1.14380       -1.00180
| 33> H         -2.22950        1.36200       -1.20020
| 34> H          3.67680       -1.47810        1.28510
| 35> H          5.57280       -0.29380        0.23730
| 36> H          5.16140        1.52990       -1.36750
| 37> H          2.84950        2.18640       -1.93950
| 38> H         -1.71510       -1.82300        1.60290
| 39> H         -4.15830       -2.03970        1.80010
| 40> *
| 41>
| 42>
| 43> $new_job
| 44> ! b2gp-plyp aug-cc-PVTZ RIJCOSX SP
| 45> %maxcore 4000
| 46> %basis
| 47>  AuxJ "aug-cc-PVTZ/JK"
| 48>  AuxC "aug-cc-PVTZ/C"
| 49>  newGTO H "cc-PVTZ" end
| 50>  newAuxJGTO H "cc-PVTZ/JK" end
| 51>  newAuxCGTO H "cc-PVTZ/C" end
| 52> end
| 53> %cpcm
| 54>  SMD true
| 55>  SMDsolvent "acetonitrile"
| 56> end
| 57> %pal nprocs 4 end
| 58> %tddft
| 59>  nroots 10
| 60>  maxdim 7
| 61> end
| 62> * xyzfile 0 1
| 63>
| 64>                          ****END OF INPUT****
 Total Charge           Charge          ....    0
 Multiplicity           Mult            ....    1
 Number of Electrons    NEL             ....  118
Dispersion correction           -0.032184037
FINAL SINGLE POINT ENERGY     -1239.737881484758
Dispersion correction            ... done
Dispersion correction           -0.032104130
FINAL SINGLE POINT ENERGY     -1239.738717977523
Dispersion correction            ... done
Dispersion correction           -0.032081903
FINAL SINGLE POINT ENERGY     -1239.738828981173
Dispersion correction            ... done
FINAL SINGLE POINT ENERGY     -1239.738496115251
FINAL SINGLE POINT ENERGY     -1239.738886291566
FINAL SINGLE POINT ENERGY     -1239.738893821102
FINAL SINGLE POINT ENERGY     -1239.738904048418
FINAL SINGLE POINT ENERGY     -1239.738971083113
FINAL SINGLE POINT ENERGY     -1239.738920914456
FINAL SINGLE POINT ENERGY     -1239.739023225668
FINAL SINGLE POINT ENERGY     -1239.739157187902
FINAL SINGLE POINT ENERGY     -1239.739426438386
FINAL SINGLE POINT ENERGY     -1239.739471756240
FINAL SINGLE POINT ENERGY     -1239.739478802884
Dispersion correction            ... done
Dispersion correction           -0.032097411
FINAL SINGLE POINT ENERGY     -1239.739478606614
Dispersion correction            ... done
                    ***********************HURRAY********************
Dispersion correction           -0.032097832
FINAL SINGLE POINT ENERGY     -1239.739479034517

CARTESIAN COORDINATES (ANGSTROEM)
---------------------------------
  C     -4.587793   -0.448657    0.409608
  C     -4.020355    0.665719   -0.192261
  C     -2.643693    0.779630   -0.295998
  C     -1.805623   -0.225907    0.196074
  C     -0.348720   -0.116975    0.111817
  P      0.751538   -0.837838    1.211120
  C      2.203413   -0.209533    0.390775
  C      3.525832   -0.437276    0.799850
  C      4.572416    0.111714    0.091325
  C      4.329616    0.899745   -1.039839
  C      3.040679    1.144191   -1.465449
  C      1.982243    0.587770   -0.746021
  S      0.322139    0.816168   -1.175508
  C     -2.390419   -1.349128    0.791425
  C     -3.765659   -1.454268    0.902502
  H     -5.664551   -0.535715    0.490994
  H     -4.651890    1.457145   -0.577940
  H     -2.217834    1.670512   -0.743312
  H      3.717947   -1.045676    1.676305
  H      5.591939   -0.066725    0.411162
  H      5.161535    1.324636   -1.588334
  H      2.854227    1.755905   -2.340095
  H     -1.758020   -2.151969    1.152442
  H     -4.198468   -2.332967    1.365659

 Multiplicity           Mult            ....    1
 Number of Electrons    NEL             ....  118
 Basis Dimension        Dim             ....  824

ORBITAL ENERGIES
----------------

  NO   OCC          E(Eh)            E(eV)
   0   2.0000     -90.669540     -2467.2436
   1   2.0000     -78.704180     -2141.6496
   2   2.0000     -10.836109      -294.8655
   3   2.0000     -10.823385      -294.5193
   4   2.0000     -10.804208      -293.9974
   5   2.0000     -10.795187      -293.7520
   6   2.0000     -10.789044      -293.5848
   7   2.0000     -10.787012      -293.5295
   8   2.0000     -10.785305      -293.4831
   9   2.0000     -10.784765      -293.4684
  10   2.0000     -10.784139      -293.4513
  11   2.0000     -10.782204      -293.3987
  12   2.0000     -10.781373      -293.3761
  13   2.0000     -10.780755      -293.3593
  14   2.0000     -10.780461      -293.3513
  15   2.0000      -8.554986      -232.7930
  16   2.0000      -7.076676      -192.5661
  17   2.0000      -6.359631      -173.0544
  18   2.0000      -6.357470      -172.9956
  19   2.0000      -6.355776      -172.9494
  20   2.0000      -5.087311      -138.4328
  21   2.0000      -5.086799      -138.4188
  22   2.0000      -5.085215      -138.3757
  23   2.0000      -1.063071       -28.9276
  24   2.0000      -1.041638       -28.3444
  25   2.0000      -0.993232       -27.0272
  26   2.0000      -0.933389       -25.3988
  27   2.0000      -0.920091       -25.0369
  28   2.0000      -0.909738       -24.7552
  29   2.0000      -0.871262       -23.7082
  30   2.0000      -0.823527       -22.4093
  31   2.0000      -0.761852       -20.7311
  32   2.0000      -0.743126       -20.2215
  33   2.0000      -0.724727       -19.7208
  34   2.0000      -0.698771       -19.0145
  35   2.0000      -0.668886       -18.2013
  36   2.0000      -0.621231       -16.9045
  37   2.0000      -0.586662       -15.9639
  38   2.0000      -0.579061       -15.7571
  39   2.0000      -0.572685       -15.5836
  40   2.0000      -0.548912       -14.9367
  41   2.0000      -0.544969       -14.8294
  42   2.0000      -0.524229       -14.2650
  43   2.0000      -0.519880       -14.1467
  44   2.0000      -0.501318       -13.6415
  45   2.0000      -0.493766       -13.4361
  46   2.0000      -0.472586       -12.8597
  47   2.0000      -0.467006       -12.7079
  48   2.0000      -0.444899       -12.1063
  49   2.0000      -0.438304       -11.9268
  50   2.0000      -0.430939       -11.7265
  51   2.0000      -0.416157       -11.3242
  52   2.0000      -0.411924       -11.2090
  53   2.0000      -0.349733        -9.5167
  54   2.0000      -0.347624        -9.4593
  55   2.0000      -0.330246        -8.9864
  56   2.0000      -0.314466        -8.5571
  57   2.0000      -0.286088        -7.7849
  58   2.0000      -0.256469        -6.9789
  59   0.0000      -0.016492        -0.4488
  60   0.0000       0.028943         0.7876
  61   0.0000       0.031204         0.8491
  62   0.0000       0.038139         1.0378
  63   0.0000       0.039945         1.0870

MULLIKEN ATOMIC CHARGES
-----------------------
   0 C :   -0.138290
   1 C :   -0.414616
   2 C :   -0.514632
   3 C :    1.771070
   4 C :   -0.070939
   5 P :   -0.740104
   6 C :    0.834110
   7 C :   -0.608964
   8 C :   -0.526142
   9 C :   -0.306382
  10 C :   -0.800099
  11 C :    0.769421
  12 S :   -0.115408
  13 C :   -0.549444
  14 C :   -0.492492
  15 H :    0.253005
  16 H :    0.243352
  17 H :    0.108188
  18 H :    0.207729
  19 H :    0.248348
  20 H :    0.238949
  21 H :    0.214926
  22 H :    0.151696
  23 H :    0.236718
Sum of atomic charges:   -0.0000000

LOEWDIN ATOMIC CHARGES
----------------------
   0 C :   -0.139031
   1 C :   -0.126311
   2 C :   -0.093648
   3 C :   -0.516100
   4 C :   -0.901482
   5 P :    1.005742
   6 C :   -0.623375
   7 C :   -0.132662
   8 C :   -0.133411
   9 C :   -0.132812
  10 C :   -0.114522
  11 C :   -0.730471
  12 S :    1.227320
  13 C :   -0.094971
  14 C :   -0.124645
  15 H :    0.171914
  16 H :    0.173794
  17 H :    0.195659
  18 H :    0.185792
  19 H :    0.172230
  20 H :    0.173837
  21 H :    0.184023
  22 H :    0.199293
  23 H :    0.173835

  Mayer bond orders larger than 0.100000
B(  0-C ,  1-C ) :   1.1723 B(  0-C , 14-C ) :   1.1493 B(  0-C , 15-H ) :   0.9536
B(  1-C ,  2-C ) :   1.0751 B(  1-C , 16-H ) :   0.9773 B(  2-C ,  3-C ) :   0.5892
B(  2-C ,  4-C ) :   0.2432 B(  2-C , 13-C ) :   0.1203 B(  2-C , 17-H ) :   1.1731
B(  3-C ,  4-C ) :   0.1451 B(  3-C ,  5-P ) :  -0.2692 B(  3-C , 13-C ) :   0.5648
B(  3-C , 17-H ) :  -0.1283 B(  3-C , 22-H ) :  -0.1133 B(  4-C ,  5-P ) :   1.5424
B(  4-C , 11-C ) :  -0.1375 B(  4-C , 12-S ) :   1.0128 B(  4-C , 13-C ) :   0.2729
B(  5-P ,  6-C ) :   0.5659 B(  5-P , 11-C ) :   0.3225 B(  5-P , 13-C ) :   0.1095
B(  6-C ,  7-C ) :   0.7810 B(  6-C ,  8-C ) :  -0.1109 B(  6-C , 10-C ) :   0.1567
B(  6-C , 11-C ) :   1.0433 B(  6-C , 12-S ) :   0.2565 B(  7-C ,  8-C ) :   1.1305
B(  7-C , 18-H ) :   1.0162 B(  8-C ,  9-C ) :   1.0494 B(  8-C , 10-C ) :   0.1584
B(  8-C , 19-H ) :   0.9789 B(  9-C , 10-C ) :   1.3360 B(  9-C , 11-C ) :  -0.1387
B(  9-C , 20-H ) :   0.9844 B( 10-C , 11-C ) :   0.6451 B( 10-C , 21-H ) :   1.0071
B( 11-C , 12-S ) :   0.6746 B( 13-C , 14-C ) :   1.1094 B( 13-C , 22-H ) :   1.1310
B( 14-C , 23-H ) :   0.9895

MP2 TOTAL ENERGY:    -1239.713478316 Eh

-----------------------------------------------------------------------------
         ABSORPTION SPECTRUM VIA TRANSITION ELECTRIC DIPOLE MOMENTS
-----------------------------------------------------------------------------
State   Energy    Wavelength  fosc         T2        TX        TY        TZ
        (cm-1)      (nm)                 (au**2)    (au)      (au)      (au)
-----------------------------------------------------------------------------
   1   30834.9    324.3   0.601716127   6.42428  -2.44897   0.28702  -0.58689
   2   32864.6    304.3   0.148122659   1.48378   0.88609   0.46713  -0.69312
   3   37630.2    265.7   0.021069251   0.18433  -0.30743  -0.27228   0.12522
   4   39389.8    253.9   0.026313854   0.21993  -0.32054   0.27405   0.20513
   5   40132.3    249.2   0.019710312   0.16169  -0.33155   0.17100  -0.15007
   6   39955.6    250.3   0.080804270   0.66578  -0.66583  -0.32411   0.34264
   7   41674.3    240.0   0.222106061   1.75456  -1.22092  -0.19305   0.47606
   8   43673.4    229.0   0.021176599   0.15963  -0.33036  -0.20777  -0.08556
   9   43882.8    227.9   0.012867241   0.09653  -0.21522  -0.16790  -0.14840
  10   44491.9    224.8   0.099153392   0.73367  -0.54712   0.53188  -0.38915

Dispersion correction           -0.024819292
FINAL SINGLE POINT ENERGY     -1238.599922636468

DIPOLE MOMENT
-------------
                                X             Y             Z
Electronic contribution:      2.96216      -0.52281       0.76492
Nuclear contribution   :     -2.87896       0.80686      -1.16266
                        -----------------------------------------
Total Dipole Moment    :      0.08321       0.28404      -0.39775
                        -----------------------------------------
Magnitude (a.u.)       :      0.49579
Magnitude (Debye)      :      1.26019

Rotational constants in cm-1:     0.054310     0.008992     0.007818
Rotational constants in MHz :  1628.178500   269.560594   234.362861

                             ****ORCA TERMINATED NORMALLY****
TOTAL RUN TIME: 0 days 3 hours 30 minutes 22 seconds 555 msec
