                         Program Version 5.0.2 -  RELEASE  -
|  1> ! pbe0 aug-cc-PVTZ RIJCOSX Opt
|  2> %maxcore 4000
|  3> %basis
|  4>  AuxJ "aug-cc-PVTZ/JK"
|  5>  AuxC "aug-cc-PVTZ/C"
|  6>  newGTO H "cc-PVTZ" end
|  7>  newAuxJGTO H "cc-PVTZ/JK" end
|  8>  newAuxCGTO H "cc-PVTZ/C" end
|  9> end
| 10> %cpcm
| 11>  SMD true
| 12>  SMDsolvent "acetonitrile"
| 13> end
| 14> %pal nprocs 4 end
| 15> * xyz 0 1
| 16> C         -4.57040       -0.46150        0.41150
| 17> C         -4.02030        0.49180       -0.42940
| 18> C         -2.64950        0.61520       -0.54150
| 19> C         -1.79710       -0.21660        0.18870
| 20> C         -0.35690       -0.10750        0.08880
| 21> P          0.74210       -1.10260        0.96210
| 22> C          2.18870       -0.32020        0.26940
| 23> C          3.50480       -0.67740        0.58050
| 24> C          4.55840       -0.01500       -0.00560
| 25> C          4.32660        1.01730       -0.91390
| 26> C          3.04000        1.38880       -1.23760
| 27> C          1.97300        0.72160       -0.64740
| 28> S          0.31300        1.10370       -0.97940
| 29> C         -2.36710       -1.17440        1.03350
| 30> C         -3.73620       -1.29410        1.14250
| 31> H         -5.64250       -0.55610        0.49770
| 32> H         -4.66370        1.14380       -1.00180
| 33> H         -2.22950        1.36200       -1.20020
| 34> H          3.67680       -1.47810        1.28510
| 35> H          5.57280       -0.29380        0.23730
| 36> H          5.16140        1.52990       -1.36750
| 37> H          2.84950        2.18640       -1.93950
| 38> H         -1.71510       -1.82300        1.60290
| 39> H         -4.15830       -2.03970        1.80010
| 40> *
| 41>
| 42>
| 43> $new_job
| 44> ! pbe0 aug-cc-PVTZ RIJCOSX SP
| 45> %maxcore 4000
| 46> %basis
| 47>  AuxJ "aug-cc-PVTZ/JK"
| 48>  AuxC "aug-cc-PVTZ/C"
| 49>  newGTO H "cc-PVTZ" end
| 50>  newAuxJGTO H "cc-PVTZ/JK" end
| 51>  newAuxCGTO H "cc-PVTZ/C" end
| 52> end
| 53> %cpcm
| 54>  SMD true
| 55>  SMDsolvent "acetonitrile"
| 56> end
| 57> %pal nprocs 4 end
| 58> %tddft
| 59>  nroots 10
| 60>  maxdim 7
| 61> end
| 62> * xyzfile 0 1
| 63>
| 64>                          ****END OF INPUT****
 Total Charge           Charge          ....    0
 Multiplicity           Mult            ....    1
 Number of Electrons    NEL             ....  118
FINAL SINGLE POINT ENERGY     -1239.705697453609
FINAL SINGLE POINT ENERGY     -1239.706627967331
FINAL SINGLE POINT ENERGY     -1239.706753063607
FINAL SINGLE POINT ENERGY     -1239.706393696777
FINAL SINGLE POINT ENERGY     -1239.706805396786
FINAL SINGLE POINT ENERGY     -1239.706812791901
FINAL SINGLE POINT ENERGY     -1239.706823858027
FINAL SINGLE POINT ENERGY     -1239.706886044515
FINAL SINGLE POINT ENERGY     -1239.706867729074
FINAL SINGLE POINT ENERGY     -1239.706998970525
FINAL SINGLE POINT ENERGY     -1239.707306648045
FINAL SINGLE POINT ENERGY     -1239.707379024202
FINAL SINGLE POINT ENERGY     -1239.707386504766
FINAL SINGLE POINT ENERGY     -1239.707388459882
                    ***********************HURRAY********************
FINAL SINGLE POINT ENERGY     -1239.707389427819

CARTESIAN COORDINATES (ANGSTROEM)
---------------------------------
  C     -4.591157   -0.449610    0.410197
  C     -4.023934    0.665466   -0.190776
  C     -2.647051    0.780062   -0.294922
  C     -1.807107   -0.225260    0.196054
  C     -0.349033   -0.115719    0.111532
  P      0.752684   -0.835080    1.210734
  C      2.205762   -0.208307    0.390759
  C      3.528356   -0.436266    0.800449
  C      4.575434    0.111766    0.091632
  C      4.332903    0.899012   -1.040418
  C      3.043999    1.143499   -1.466443
  C      1.984922    0.587793   -0.746366
  S      0.324105    0.816166   -1.176309
  C     -2.392564   -1.349247    0.790620
  C     -3.768054   -1.455142    0.901839
  H     -5.668033   -0.537279    0.491786
  H     -4.655674    1.457341   -0.575772
  H     -2.223086    1.672112   -0.742196
  H      3.720551   -1.044054    1.677552
  H      5.595016   -0.066782    0.411874
  H      5.165143    1.323239   -1.589342
  H      2.858311    1.754644   -2.341893
  H     -1.760901   -2.153050    1.151339
  H     -4.200089   -2.334802    1.364370

 Multiplicity           Mult            ....    1
 Number of Electrons    NEL             ....  118
 Basis Dimension        Dim             ....  824

ORBITAL ENERGIES
----------------

  NO   OCC          E(Eh)            E(eV)
   0   2.0000     -89.090413     -2424.2734
   1   2.0000     -77.226488     -2101.4396
   2   2.0000     -10.286363      -279.9062
   3   2.0000     -10.275950      -279.6228
   4   2.0000     -10.256753      -279.1004
   5   2.0000     -10.250656      -278.9345
   6   2.0000     -10.240588      -278.6606
   7   2.0000     -10.237971      -278.5894
   8   2.0000     -10.236184      -278.5407
   9   2.0000     -10.235396      -278.5193
  10   2.0000     -10.235090      -278.5110
  11   2.0000     -10.232831      -278.4495
  12   2.0000     -10.232385      -278.4373
  13   2.0000     -10.231974      -278.4262
  14   2.0000     -10.231842      -278.4226
  15   2.0000      -8.047733      -218.9900
  16   2.0000      -6.606966      -179.7847
  17   2.0000      -5.984585      -162.8488
  18   2.0000      -5.980951      -162.7499
  19   2.0000      -5.978374      -162.6798
  20   2.0000      -4.743031      -129.0644
  21   2.0000      -4.742353      -129.0460
  22   2.0000      -4.739544      -128.9696
  23   2.0000      -0.920441       -25.0465
  24   2.0000      -0.897652       -24.4263
  25   2.0000      -0.857997       -23.3473
  26   2.0000      -0.801606       -21.8128
  27   2.0000      -0.789143       -21.4737
  28   2.0000      -0.778144       -21.1744
  29   2.0000      -0.747334       -20.3360
  30   2.0000      -0.707598       -19.2547
  31   2.0000      -0.652193       -17.7471
  32   2.0000      -0.634473       -17.2649
  33   2.0000      -0.618853       -16.8399
  34   2.0000      -0.596383       -16.2284
  35   2.0000      -0.574982       -15.6460
  36   2.0000      -0.531413       -14.4605
  37   2.0000      -0.498970       -13.5777
  38   2.0000      -0.491737       -13.3808
  39   2.0000      -0.486607       -13.2412
  40   2.0000      -0.463046       -12.6001
  41   2.0000      -0.458351       -12.4724
  42   2.0000      -0.443320       -12.0634
  43   2.0000      -0.437708       -11.9106
  44   2.0000      -0.425019       -11.5654
  45   2.0000      -0.422933       -11.5086
  46   2.0000      -0.402411       -10.9502
  47   2.0000      -0.396800       -10.7975
  48   2.0000      -0.370847       -10.0913
  49   2.0000      -0.362599        -9.8668
  50   2.0000      -0.359577        -9.7846
  51   2.0000      -0.354757        -9.6534
  52   2.0000      -0.347017        -9.4428
  53   2.0000      -0.304208        -8.2779
  54   2.0000      -0.292936        -7.9712
  55   2.0000      -0.289602        -7.8805
  56   2.0000      -0.275760        -7.5038
  57   2.0000      -0.251105        -6.8329
  58   2.0000      -0.226802        -6.1716
  59   0.0000      -0.074157        -2.0179
  60   0.0000      -0.022237        -0.6051
  61   0.0000      -0.018556        -0.5049
  62   0.0000      -0.011852        -0.3225
  63   0.0000       0.003038         0.0827

MULLIKEN ATOMIC CHARGES
-----------------------
   0 C :   -0.176955
   1 C :   -0.351957
   2 C :   -0.550673
   3 C :    1.520151
   4 C :   -0.046952
   5 P :   -0.511054
   6 C :    0.539572
   7 C :   -0.474732
   8 C :   -0.490520
   9 C :   -0.275504
  10 C :   -0.780441
  11 C :    0.603650
  12 S :   -0.044252
  13 C :   -0.573475
  14 C :   -0.425124
  15 H :    0.261676
  16 H :    0.251763
  17 H :    0.138692
  18 H :    0.232843
  19 H :    0.253410
  20 H :    0.243681
  21 H :    0.235716
  22 H :    0.171676
  23 H :    0.248811
Sum of atomic charges:    0.0000000

LOEWDIN ATOMIC CHARGES
----------------------
   0 C :   -0.140185
   1 C :   -0.126934
   2 C :   -0.094935
   3 C :   -0.516424
   4 C :   -0.905379
   5 P :    1.002564
   6 C :   -0.627982
   7 C :   -0.133790
   8 C :   -0.133377
   9 C :   -0.133412
  10 C :   -0.115530
  11 C :   -0.730181
  12 S :    1.233707
  13 C :   -0.096532
  14 C :   -0.125319
  15 H :    0.172962
  16 H :    0.175133
  17 H :    0.197394
  18 H :    0.187308
  19 H :    0.173826
  20 H :    0.175173
  21 H :    0.185753
  22 H :    0.200982
  23 H :    0.175180

  Mayer bond orders larger than 0.100000
B(  0-C ,  1-C ) :   1.2614 B(  0-C , 14-C ) :   1.2547 B(  0-C , 15-H ) :   0.8843
B(  1-C ,  2-C ) :   1.2107 B(  1-C , 16-H ) :   0.9053 B(  2-C ,  3-C ) :   0.7387
B(  2-C ,  4-C ) :   0.2298 B(  2-C , 13-C ) :   0.1142 B(  2-C , 17-H ) :   1.0584
B(  3-C ,  4-C ) :   0.1715 B(  3-C ,  5-P ) :  -0.2418 B(  3-C , 12-S ) :  -0.1056
B(  3-C , 13-C ) :   0.7109 B(  4-C ,  5-P ) :   1.4720 B(  4-C , 11-C ) :  -0.1133
B(  4-C , 12-S ) :   0.9429 B(  4-C , 13-C ) :   0.2377 B(  5-P ,  6-C ) :   0.7533
B(  5-P , 11-C ) :   0.2322 B(  6-C ,  7-C ) :   0.9763 B(  6-C , 10-C ) :   0.1144
B(  6-C , 11-C ) :   1.0558 B(  6-C , 12-S ) :   0.1809 B(  7-C ,  8-C ) :   1.2328
B(  7-C , 18-H ) :   0.9144 B(  8-C ,  9-C ) :   1.2058 B(  8-C , 10-C ) :   0.1729
B(  8-C , 19-H ) :   0.9086 B(  9-C , 10-C ) :   1.4054 B(  9-C , 11-C ) :  -0.1273
B(  9-C , 20-H ) :   0.9123 B( 10-C , 11-C ) :   0.8523 B( 10-C , 21-H ) :   0.9101
B( 11-C , 12-S ) :   0.5898 B( 13-C , 14-C ) :   1.2386 B( 13-C , 22-H ) :   1.0376
B( 14-C , 23-H ) :   0.9114

-----------------------------------------------------------------------------
         ABSORPTION SPECTRUM VIA TRANSITION ELECTRIC DIPOLE MOMENTS
-----------------------------------------------------------------------------
State   Energy    Wavelength  fosc         T2        TX        TY        TZ
        (cm-1)      (nm)                 (au**2)    (au)      (au)      (au)
-----------------------------------------------------------------------------
   1   29797.7    335.6   0.500641844   5.53121   2.26958  -0.26918   0.55477
   2   32711.9    305.7   0.300539807   3.02463   1.61378   0.39351  -0.51527
   3   36182.3    276.4   0.022295498   0.20286  -0.30829  -0.29240   0.14941
   4   37607.6    265.9   0.041556622   0.36378  -0.52645   0.24210   0.16737
   5   38344.6    260.8   0.064271425   0.55181   0.72957   0.12044  -0.07090
   6   38651.5    258.7   0.016869422   0.14368   0.14989  -0.25941   0.23222
   7   39498.7    253.2   0.111415170   0.92862   0.93454   0.16878  -0.16363
   8   41941.4    238.4   0.046947107   0.36850  -0.51050  -0.09699   0.31383
   9   42655.3    234.4   0.041732573   0.32209  -0.22066  -0.36045   0.37878
  10   43501.3    229.9   0.035341098   0.26746   0.48281   0.18468  -0.01566

FINAL SINGLE POINT ENERGY     -1239.571621169262

DIPOLE MOMENT
-------------
                                X             Y             Z
Electronic contribution:      2.96625      -0.47868       0.71101
Nuclear contribution   :     -2.88680       0.79776      -1.16044
                        -----------------------------------------
Total Dipole Moment    :      0.07945       0.31908      -0.44943
                        -----------------------------------------
Magnitude (a.u.)       :      0.55688
Magnitude (Debye)      :      1.41547

Rotational constants in cm-1:     0.054334     0.008976     0.007807
Rotational constants in MHz :  1628.879721   269.105197   234.053395

                             ****ORCA TERMINATED NORMALLY****
TOTAL RUN TIME: 0 days 2 hours 43 minutes 16 seconds 57 msec
