                         Program Version 5.0.2 -  RELEASE  -
|  1> ! wb97x-d3 aug-cc-PVTZ RIJCOSX Opt
|  2> %maxcore 4000
|  3> %basis
|  4>  AuxJ "aug-cc-PVTZ/JK"
|  5>  AuxC "aug-cc-PVTZ/C"
|  6>  newGTO H "cc-PVTZ" end
|  7>  newAuxJGTO H "cc-PVTZ/JK" end
|  8>  newAuxCGTO H "cc-PVTZ/C" end
|  9> end
| 10> %cpcm
| 11>  SMD true
| 12>  SMDsolvent "acetonitrile"
| 13> end
| 14> %pal nprocs 4 end
| 15> * xyz 0 1
| 16> C         -4.57040       -0.46150        0.41150
| 17> C         -4.02030        0.49180       -0.42940
| 18> C         -2.64950        0.61520       -0.54150
| 19> C         -1.79710       -0.21660        0.18870
| 20> C         -0.35690       -0.10750        0.08880
| 21> P          0.74210       -1.10260        0.96210
| 22> C          2.18870       -0.32020        0.26940
| 23> C          3.50480       -0.67740        0.58050
| 24> C          4.55840       -0.01500       -0.00560
| 25> C          4.32660        1.01730       -0.91390
| 26> C          3.04000        1.38880       -1.23760
| 27> C          1.97300        0.72160       -0.64740
| 28> S          0.31300        1.10370       -0.97940
| 29> C         -2.36710       -1.17440        1.03350
| 30> C         -3.73620       -1.29410        1.14250
| 31> H         -5.64250       -0.55610        0.49770
| 32> H         -4.66370        1.14380       -1.00180
| 33> H         -2.22950        1.36200       -1.20020
| 34> H          3.67680       -1.47810        1.28510
| 35> H          5.57280       -0.29380        0.23730
| 36> H          5.16140        1.52990       -1.36750
| 37> H          2.84950        2.18640       -1.93950
| 38> H         -1.71510       -1.82300        1.60290
| 39> H         -4.15830       -2.03970        1.80010
| 40> *
| 41>
| 42>
| 43> $new_job
| 44> ! wb97x-d3 aug-cc-PVTZ RIJCOSX SP
| 45> %maxcore 4000
| 46> %basis
| 47>  AuxJ "aug-cc-PVTZ/JK"
| 48>  AuxC "aug-cc-PVTZ/C"
| 49>  newGTO H "cc-PVTZ" end
| 50>  newAuxJGTO H "cc-PVTZ/JK" end
| 51>  newAuxCGTO H "cc-PVTZ/C" end
| 52> end
| 53> %cpcm
| 54>  SMD true
| 55>  SMDsolvent "acetonitrile"
| 56> end
| 57> %pal nprocs 4 end
| 58> %tddft
| 59>  nroots 10
| 60>  maxdim 7
| 61> end
| 62> * xyzfile 0 1
| 63>
| 64>                          ****END OF INPUT****
 Total Charge           Charge          ....    0
 Multiplicity           Mult            ....    1
 Number of Electrons    NEL             ....  118
Dispersion correction           -0.008259615
FINAL SINGLE POINT ENERGY     -1240.405065117329
Dispersion correction            ... done
Dispersion correction           -0.008232100
FINAL SINGLE POINT ENERGY     -1240.406360391291
Dispersion correction            ... done
Dispersion correction           -0.008227124
FINAL SINGLE POINT ENERGY     -1240.406194468747
Dispersion correction            ... done
FINAL SINGLE POINT ENERGY     -1240.406520172742
FINAL SINGLE POINT ENERGY     -1240.406599830862
FINAL SINGLE POINT ENERGY     -1240.406617583664
Dispersion correction           -0.008231166
FINAL SINGLE POINT ENERGY     -1240.406622125823
Dispersion correction            ... done
Dispersion correction           -0.008231853
FINAL SINGLE POINT ENERGY     -1240.406623557172
Dispersion correction            ... done
                    ***********************HURRAY********************
Dispersion correction           -0.008232295
FINAL SINGLE POINT ENERGY     -1240.406623180716

CARTESIAN COORDINATES (ANGSTROEM)
---------------------------------
  C     -4.598067   -0.451124    0.409908
  C     -4.036053    0.503719   -0.422880
  C     -2.658445    0.613770   -0.530150
  C     -1.813368   -0.229714    0.193295
  C     -0.342551   -0.127257    0.098756
  P      0.762999   -1.092967    0.966855
  C      2.215427   -0.322289    0.277891
  C      3.539252   -0.669177    0.589901
  C      4.583871   -0.001460   -0.006824
  C      4.337664    1.026661   -0.925691
  C      3.049436    1.387444   -1.251097
  C      1.990990    0.706563   -0.643310
  S      0.326510    1.059939   -0.966182
  C     -2.395505   -1.190192    1.026801
  C     -3.769614   -1.298214    1.134759
  H     -5.673706   -0.536703    0.495013
  H     -4.669171    1.168364   -0.996441
  H     -2.251783    1.370690   -1.189276
  H      3.731742   -1.463059    1.301322
  H      5.604366   -0.269322    0.234526
  H      5.169430    1.542294   -1.387934
  H      2.860508    2.180870   -1.963032
  H     -1.767843   -1.860166    1.601239
  H     -4.195590   -2.048171    1.788850

 Multiplicity           Mult            ....    1
 Number of Electrons    NEL             ....  118
 Basis Dimension        Dim             ....  824

ORBITAL ENERGIES
----------------

  NO   OCC          E(Eh)            E(eV)
   0   2.0000     -89.017278     -2422.2833
   1   2.0000     -77.171279     -2099.9373
   2   2.0000     -10.341792      -281.4145
   3   2.0000     -10.328770      -281.0601
   4   2.0000     -10.310660      -280.5673
   5   2.0000     -10.301771      -280.3254
   6   2.0000     -10.293263      -280.0939
   7   2.0000     -10.291187      -280.0374
   8   2.0000     -10.289246      -279.9846
   9   2.0000     -10.288677      -279.9691
  10   2.0000     -10.287799      -279.9453
  11   2.0000     -10.285306      -279.8774
  12   2.0000     -10.284889      -279.8661
  13   2.0000     -10.284705      -279.8611
  14   2.0000     -10.284388      -279.8524
  15   2.0000      -8.091224      -220.1734
  16   2.0000      -6.659891      -181.2249
  17   2.0000      -6.045629      -164.5099
  18   2.0000      -6.041575      -164.3996
  19   2.0000      -6.038467      -164.3150
  20   2.0000      -4.812281      -130.9488
  21   2.0000      -4.811440      -130.9259
  22   2.0000      -4.808295      -130.8403
  23   2.0000      -1.014255       -27.5993
  24   2.0000      -0.990933       -26.9646
  25   2.0000      -0.951477       -25.8910
  26   2.0000      -0.894267       -24.3342
  27   2.0000      -0.882489       -24.0138
  28   2.0000      -0.871450       -23.7133
  29   2.0000      -0.839794       -22.8520
  30   2.0000      -0.801582       -21.8122
  31   2.0000      -0.742245       -20.1975
  32   2.0000      -0.725586       -19.7442
  33   2.0000      -0.709513       -19.3068
  34   2.0000      -0.684817       -18.6348
  35   2.0000      -0.664389       -18.0789
  36   2.0000      -0.620097       -16.8737
  37   2.0000      -0.587351       -15.9826
  38   2.0000      -0.577584       -15.7169
  39   2.0000      -0.572494       -15.5784
  40   2.0000      -0.546839       -14.8802
  41   2.0000      -0.544695       -14.8219
  42   2.0000      -0.526506       -14.3269
  43   2.0000      -0.519970       -14.1491
  44   2.0000      -0.517325       -14.0771
  45   2.0000      -0.506728       -13.7888
  46   2.0000      -0.492853       -13.4112
  47   2.0000      -0.478592       -13.0232
  48   2.0000      -0.452121       -12.3028
  49   2.0000      -0.443877       -12.0785
  50   2.0000      -0.442179       -12.0323
  51   2.0000      -0.437471       -11.9042
  52   2.0000      -0.425057       -11.5664
  53   2.0000      -0.383922       -10.4471
  54   2.0000      -0.367693       -10.0054
  55   2.0000      -0.367440        -9.9985
  56   2.0000      -0.349969        -9.5232
  57   2.0000      -0.319024        -8.6811
  58   2.0000      -0.291751        -7.9390
  59   0.0000      -0.014669        -0.3992
  60   0.0000       0.046051         1.2531
  61   0.0000       0.050051         1.3620
  62   0.0000       0.050842         1.3835
  63   0.0000       0.052328         1.4239

MULLIKEN ATOMIC CHARGES
-----------------------
   0 C :   -0.078352
   1 C :   -0.462688
   2 C :   -0.521956
   3 C :    1.823514
   4 C :   -0.005324
   5 P :   -0.386319
   6 C :    0.484929
   7 C :   -0.510464
   8 C :   -0.507961
   9 C :   -0.271635
  10 C :   -0.888127
  11 C :    0.566651
  12 S :    0.087891
  13 C :   -0.458116
  14 C :   -0.639547
  15 H :    0.239745
  16 H :    0.255188
  17 H :    0.038530
  18 H :    0.219487
  19 H :    0.238535
  20 H :    0.227715
  21 H :    0.218028
  22 H :    0.081031
  23 H :    0.249245
Sum of atomic charges:   -0.0000000

LOEWDIN ATOMIC CHARGES
----------------------
   0 C :   -0.138234
   1 C :   -0.124412
   2 C :   -0.101277
   3 C :   -0.499004
   4 C :   -0.897677
   5 P :    0.995975
   6 C :   -0.626088
   7 C :   -0.129726
   8 C :   -0.130281
   9 C :   -0.130552
  10 C :   -0.111723
  11 C :   -0.731083
  12 S :    1.217551
  13 C :   -0.103268
  14 C :   -0.123422
  15 H :    0.171502
  16 H :    0.173514
  17 H :    0.196598
  18 H :    0.186479
  19 H :    0.172364
  20 H :    0.173966
  21 H :    0.184482
  22 H :    0.200639
  23 H :    0.173678

  Mayer bond orders larger than 0.100000
B(  0-C ,  1-C ) :   1.1173 B(  0-C , 14-C ) :   1.0997 B(  0-C , 15-H ) :   0.9496
B(  1-C ,  2-C ) :   1.0656 B(  1-C , 14-C ) :   0.2612 B(  1-C , 16-H ) :   0.9185
B(  2-C ,  3-C ) :   0.4476 B(  2-C ,  4-C ) :   0.3429 B(  2-C , 17-H ) :   1.2630
B(  3-C ,  4-C ) :   0.3133 B(  3-C ,  5-P ) :  -0.2223 B(  3-C , 13-C ) :   0.4986
B(  3-C , 17-H ) :  -0.2395 B(  3-C , 22-H ) :  -0.2139 B(  4-C ,  5-P ) :   1.4898
B(  4-C ,  6-C ) :  -0.2176 B(  4-C , 10-C ) :   0.1024 B(  4-C , 12-S ) :   0.7306
B(  4-C , 13-C ) :   0.3394 B(  4-C , 14-C ) :   0.1070 B(  5-P ,  6-C ) :   0.7786
B(  5-P , 11-C ) :   0.2464 B(  6-C ,  7-C ) :   0.6584 B(  6-C , 10-C ) :   0.2224
B(  6-C , 11-C ) :   1.1097 B(  6-C , 12-S ) :   0.1964 B(  7-C ,  8-C ) :   1.0289
B(  7-C , 18-H ) :   0.9958 B(  8-C ,  9-C ) :   1.0810 B(  8-C , 10-C ) :   0.2241
B(  8-C , 19-H ) :   0.9652 B(  9-C , 10-C ) :   1.3095 B(  9-C , 11-C ) :  -0.1623
B(  9-C , 20-H ) :   0.9657 B( 10-C , 11-C ) :   0.5176 B( 10-C , 21-H ) :   0.9789
B( 11-C , 12-S ) :   0.4937 B( 13-C , 14-C ) :   1.0185 B( 13-C , 22-H ) :   1.2129
B( 14-C , 23-H ) :   0.9454

-----------------------------------------------------------------------------
         ABSORPTION SPECTRUM VIA TRANSITION ELECTRIC DIPOLE MOMENTS
-----------------------------------------------------------------------------
State   Energy    Wavelength  fosc         T2        TX        TY        TZ
        (cm-1)      (nm)                 (au**2)    (au)      (au)      (au)
-----------------------------------------------------------------------------
   1   30955.0    323.1   0.613512273   6.52482   2.49130  -0.41974   0.37690
   2   35556.5    281.2   0.160173266   1.48302   0.89870   0.60895  -0.55186
   3   39204.4    255.1   0.013213753   0.11096  -0.00678   0.22836   0.24241
   4   40075.8    249.5   0.037904384   0.31137  -0.23739  -0.37815   0.33470
   5   42404.8    235.8   0.314747431   2.44356   1.47013   0.39409  -0.35634
   6   43456.5    230.1   0.000288706   0.00219  -0.00579  -0.01003   0.04531
   7   44099.6    226.8   0.065346850   0.48783  -0.69817   0.01781  -0.00847
   8   47085.3    212.4   0.051476218   0.35991  -0.57348   0.12992  -0.11899
   9   47492.2    210.6   0.011772109   0.08160  -0.07383   0.17547   0.21299
  10   47532.6    210.4   0.202525936   1.40270   1.16394  -0.16048   0.14899

Dispersion correction           -0.008232295
FINAL SINGLE POINT ENERGY     -1240.265582047573

DIPOLE MOMENT
-------------
                                X             Y             Z
Electronic contribution:      3.05614      -0.66040       0.55167
Nuclear contribution   :     -2.93441       1.03868      -0.88750
                        -----------------------------------------
Total Dipole Moment    :      0.12173       0.37828      -0.33584
                        -----------------------------------------
Magnitude (a.u.)       :      0.52029
Magnitude (Debye)      :      1.32247

Rotational constants in cm-1:     0.054545     0.009009     0.007732
Rotational constants in MHz :  1635.203805   270.075663   231.797346

                             ****ORCA TERMINATED NORMALLY****
TOTAL RUN TIME: 0 days 2 hours 21 minutes 29 seconds 302 msec
