                         Program Version 5.0.2 -  RELEASE  -
|  1> ! x3lyp aug-cc-PVTZ RIJCOSX Opt
|  2> %maxcore 4000
|  3> %basis
|  4>  AuxJ "aug-cc-PVTZ/JK"
|  5>  AuxC "aug-cc-PVTZ/C"
|  6>  newGTO H "cc-PVTZ" end
|  7>  newAuxJGTO H "cc-PVTZ/JK" end
|  8>  newAuxCGTO H "cc-PVTZ/C" end
|  9> end
| 10> %cpcm
| 11>  SMD true
| 12>  SMDsolvent "acetonitrile"
| 13> end
| 14> %pal nprocs 4 end
| 15> * xyz 0 1
| 16> C         -4.57040       -0.46150        0.41150
| 17> C         -4.02030        0.49180       -0.42940
| 18> C         -2.64950        0.61520       -0.54150
| 19> C         -1.79710       -0.21660        0.18870
| 20> C         -0.35690       -0.10750        0.08880
| 21> P          0.74210       -1.10260        0.96210
| 22> C          2.18870       -0.32020        0.26940
| 23> C          3.50480       -0.67740        0.58050
| 24> C          4.55840       -0.01500       -0.00560
| 25> C          4.32660        1.01730       -0.91390
| 26> C          3.04000        1.38880       -1.23760
| 27> C          1.97300        0.72160       -0.64740
| 28> S          0.31300        1.10370       -0.97940
| 29> C         -2.36710       -1.17440        1.03350
| 30> C         -3.73620       -1.29410        1.14250
| 31> H         -5.64250       -0.55610        0.49770
| 32> H         -4.66370        1.14380       -1.00180
| 33> H         -2.22950        1.36200       -1.20020
| 34> H          3.67680       -1.47810        1.28510
| 35> H          5.57280       -0.29380        0.23730
| 36> H          5.16140        1.52990       -1.36750
| 37> H          2.84950        2.18640       -1.93950
| 38> H         -1.71510       -1.82300        1.60290
| 39> H         -4.15830       -2.03970        1.80010
| 40> *
| 41>
| 42>
| 43> $new_job
| 44> ! x3lyp aug-cc-PVTZ RIJCOSX SP
| 45> %maxcore 4000
| 46> %basis
| 47>  AuxJ "aug-cc-PVTZ/JK"
| 48>  AuxC "aug-cc-PVTZ/C"
| 49>  newGTO H "cc-PVTZ" end
| 50>  newAuxJGTO H "cc-PVTZ/JK" end
| 51>  newAuxCGTO H "cc-PVTZ/C" end
| 52> end
| 53> %cpcm
| 54>  SMD true
| 55>  SMDsolvent "acetonitrile"
| 56> end
| 57> %pal nprocs 4 end
| 58> %tddft
| 59>  nroots 10
| 60>  maxdim 7
| 61> end
| 62> * xyzfile 0 1
| 63>
| 64>                          ****END OF INPUT****
 Total Charge           Charge          ....    0
 Multiplicity           Mult            ....    1
 Number of Electrons    NEL             ....  118
FINAL SINGLE POINT ENERGY     -1239.974002204833
FINAL SINGLE POINT ENERGY     -1239.975408208873
FINAL SINGLE POINT ENERGY     -1239.975500823096
FINAL SINGLE POINT ENERGY     -1239.975246447110
FINAL SINGLE POINT ENERGY     -1239.975546743052
FINAL SINGLE POINT ENERGY     -1239.975554909339
FINAL SINGLE POINT ENERGY     -1239.975569152193
FINAL SINGLE POINT ENERGY     -1239.975616209200
FINAL SINGLE POINT ENERGY     -1239.975626761987
FINAL SINGLE POINT ENERGY     -1239.975819781569
FINAL SINGLE POINT ENERGY     -1239.976218461640
FINAL SINGLE POINT ENERGY     -1239.976249551038
FINAL SINGLE POINT ENERGY     -1239.976250606174
                    ***********************HURRAY********************
FINAL SINGLE POINT ENERGY     -1239.976254153274

CARTESIAN COORDINATES (ANGSTROEM)
---------------------------------
  C     -4.608541   -0.452952    0.411066
  C     -4.039134    0.675043   -0.168799
  C     -2.659775    0.790921   -0.271636
  C     -1.815845   -0.225282    0.200193
  C     -0.353669   -0.113151    0.116545
  P      0.755602   -0.809315    1.231453
  C      2.217325   -0.194528    0.397201
  C      3.541507   -0.415112    0.813459
  C      4.593060    0.120867    0.096502
  C      4.352639    0.889421   -1.051375
  C      3.061286    1.125192   -1.484479
  C      1.998423    0.581543   -0.757234
  S      0.326072    0.801969   -1.199380
  C     -2.405722   -1.362159    0.774028
  C     -3.783816   -1.469581    0.883275
  H     -5.683670   -0.541629    0.491029
  H     -4.668662    1.474008   -0.537569
  H     -2.238422    1.690110   -0.701114
  H      3.732384   -1.006170    1.700074
  H      5.610084   -0.052169    0.421978
  H      5.184205    1.303882   -1.605238
  H      2.878568    1.719723   -2.369816
  H     -1.778442   -2.173304    1.118387
  H     -4.214959   -2.356825    1.327749

 Multiplicity           Mult            ....    1
 Number of Electrons    NEL             ....  118
 Basis Dimension        Dim             ....  824

ORBITAL ENERGIES
----------------

  NO   OCC          E(Eh)            E(eV)
   0   2.0000     -88.993256     -2421.6296
   1   2.0000     -77.140996     -2099.1132
   2   2.0000     -10.250383      -278.9271
   3   2.0000     -10.241457      -278.6842
   4   2.0000     -10.223902      -278.2065
   5   2.0000     -10.215600      -277.9806
   6   2.0000     -10.208017      -277.7743
   7   2.0000     -10.205310      -277.7006
   8   2.0000     -10.203662      -277.6558
   9   2.0000     -10.203007      -277.6379
  10   2.0000     -10.202670      -277.6288
  11   2.0000     -10.200720      -277.5757
  12   2.0000     -10.200296      -277.5642
  13   2.0000     -10.199769      -277.5498
  14   2.0000     -10.199691      -277.5477
  15   2.0000      -7.997687      -217.6281
  16   2.0000      -6.562982      -178.5878
  17   2.0000      -5.955214      -162.0496
  18   2.0000      -5.951608      -161.9515
  19   2.0000      -5.948804      -161.8752
  20   2.0000      -4.719023      -128.4111
  21   2.0000      -4.718276      -128.3908
  22   2.0000      -4.715521      -128.3159
  23   2.0000      -0.894350       -24.3365
  24   2.0000      -0.873481       -23.7686
  25   2.0000      -0.834133       -22.6979
  26   2.0000      -0.779823       -21.2201
  27   2.0000      -0.767763       -20.8919
  28   2.0000      -0.757768       -20.6199
  29   2.0000      -0.727560       -19.7979
  30   2.0000      -0.688480       -18.7345
  31   2.0000      -0.634265       -17.2592
  32   2.0000      -0.617122       -16.7927
  33   2.0000      -0.602581       -16.3971
  34   2.0000      -0.581006       -15.8100
  35   2.0000      -0.558707       -15.2032
  36   2.0000      -0.516716       -14.0606
  37   2.0000      -0.485525       -13.2118
  38   2.0000      -0.477961       -13.0060
  39   2.0000      -0.472273       -12.8512
  40   2.0000      -0.451070       -12.2742
  41   2.0000      -0.447246       -12.1702
  42   2.0000      -0.431362       -11.7379
  43   2.0000      -0.426481       -11.6051
  44   2.0000      -0.411237       -11.1903
  45   2.0000      -0.408308       -11.1106
  46   2.0000      -0.388578       -10.5737
  47   2.0000      -0.384857       -10.4725
  48   2.0000      -0.361141        -9.8271
  49   2.0000      -0.353633        -9.6229
  50   2.0000      -0.349334        -9.5058
  51   2.0000      -0.341358        -9.2888
  52   2.0000      -0.336870        -9.1667
  53   2.0000      -0.290910        -7.9161
  54   2.0000      -0.281928        -7.6716
  55   2.0000      -0.277342        -7.5469
  56   2.0000      -0.264149        -7.1879
  57   2.0000      -0.240364        -6.5406
  58   2.0000      -0.216595        -5.8938
  59   0.0000      -0.072374        -1.9694
  60   0.0000      -0.022199        -0.6041
  61   0.0000      -0.018784        -0.5111
  62   0.0000      -0.012082        -0.3288
  63   0.0000      -0.000836        -0.0227

MULLIKEN ATOMIC CHARGES
-----------------------
   0 C :   -0.128663
   1 C :   -0.341018
   2 C :   -0.535771
   3 C :    1.656816
   4 C :   -0.098200
   5 P :   -0.539678
   6 C :    0.658164
   7 C :   -0.518694
   8 C :   -0.466187
   9 C :   -0.238635
  10 C :   -0.766894
  11 C :    0.676928
  12 S :    0.005505
  13 C :   -0.540072
  14 C :   -0.400255
  15 H :    0.214709
  16 H :    0.208004
  17 H :    0.078131
  18 H :    0.174067
  19 H :    0.207080
  20 H :    0.203988
  21 H :    0.173980
  22 H :    0.111786
  23 H :    0.204910
Sum of atomic charges:   -0.0000000

LOEWDIN ATOMIC CHARGES
----------------------
   0 C :   -0.138655
   1 C :   -0.126106
   2 C :   -0.092749
   3 C :   -0.508211
   4 C :   -0.893724
   5 P :    0.999151
   6 C :   -0.619924
   7 C :   -0.133117
   8 C :   -0.132404
   9 C :   -0.132306
  10 C :   -0.116046
  11 C :   -0.719443
  12 S :    1.219894
  13 C :   -0.093321
  14 C :   -0.124561
  15 H :    0.169818
  16 H :    0.172037
  17 H :    0.192991
  18 H :    0.183729
  19 H :    0.170552
  20 H :    0.171842
  21 H :    0.182153
  22 H :    0.196320
  23 H :    0.172081

  Mayer bond orders larger than 0.100000
B(  0-C ,  1-C ) :   1.2054 B(  0-C , 14-C ) :   1.1951 B(  0-C , 15-H ) :   0.9248
B(  1-C ,  2-C ) :   1.1647 B(  1-C , 16-H ) :   0.9453 B(  2-C ,  3-C ) :   0.6167
B(  2-C ,  4-C ) :   0.3198 B(  2-C , 17-H ) :   1.1418 B(  3-C ,  5-P ) :  -0.1701
B(  3-C , 13-C ) :   0.6164 B(  3-C , 17-H ) :  -0.1231 B(  3-C , 22-H ) :  -0.1083
B(  4-C ,  5-P ) :   1.3628 B(  4-C , 11-C ) :  -0.1123 B(  4-C , 12-S ) :   0.8963
B(  4-C , 13-C ) :   0.3200 B(  5-P ,  6-C ) :   0.5709 B(  5-P , 11-C ) :   0.3267
B(  6-C ,  7-C ) :   0.8798 B(  6-C , 10-C ) :   0.1424 B(  6-C , 11-C ) :   0.9811
B(  6-C , 12-S ) :   0.2585 B(  7-C ,  8-C ) :   1.1669 B(  7-C , 18-H ) :   0.9866
B(  8-C ,  9-C ) :   1.1405 B(  8-C , 10-C ) :   0.1636 B(  8-C , 19-H ) :   0.9531
B(  9-C , 10-C ) :   1.3305 B(  9-C , 11-C ) :  -0.1099 B(  9-C , 20-H ) :   0.9483
B( 10-C , 11-C ) :   0.7421 B( 10-C , 21-H ) :   0.9930 B( 11-C , 12-S ) :   0.5477
B( 13-C , 14-C ) :   1.1729 B( 13-C , 22-H ) :   1.1109 B( 14-C , 23-H ) :   0.9524

-----------------------------------------------------------------------------
         ABSORPTION SPECTRUM VIA TRANSITION ELECTRIC DIPOLE MOMENTS
-----------------------------------------------------------------------------
State   Energy    Wavelength  fosc         T2        TX        TY        TZ
        (cm-1)      (nm)                 (au**2)    (au)      (au)      (au)
-----------------------------------------------------------------------------
   1   29181.1    342.7   0.478687644   5.40041   2.23857  -0.25757   0.56822
   2   31902.6    313.5   0.307893686   3.17724   1.66646   0.38009  -0.50564
   3   35162.3    284.4   0.017187220   0.16092  -0.27974  -0.25868   0.12549
   4   36824.9    271.6   0.053774598   0.48074   0.63202  -0.27249  -0.08390
   5   37401.8    267.4   0.019909374   0.17524   0.25369   0.25877  -0.20958
   6   37532.9    266.4   0.005196839   0.04558   0.13527   0.04407   0.15919
   7   38331.4    260.9   0.114142440   0.98032   0.97228   0.15156  -0.10968
   8   40636.2    246.1   0.042596940   0.34510  -0.52662  -0.03728   0.25764
   9   41055.5    243.6   0.044039111   0.35314   0.30225   0.30060  -0.41403
  10   41931.3    238.5   0.024396844   0.19154  -0.36931  -0.23194   0.03685

FINAL SINGLE POINT ENERGY     -1239.843295544079

DIPOLE MOMENT
-------------
                                X             Y             Z
Electronic contribution:      2.96929      -0.46625       0.75771
Nuclear contribution   :     -2.90579       0.75055      -1.17890
                        -----------------------------------------
Total Dipole Moment    :      0.06350       0.28430      -0.42118
                        -----------------------------------------
Magnitude (a.u.)       :      0.51211
Magnitude (Debye)      :      1.30168

Rotational constants in cm-1:     0.054050     0.008889     0.007752
Rotational constants in MHz :  1620.363848   266.478207   232.388674

                             ****ORCA TERMINATED NORMALLY****
TOTAL RUN TIME: 0 days 2 hours 32 minutes 59 seconds 276 msec
