                         Program Version 5.0.2 -  RELEASE  -
|  1> ! b3lyp aug-cc-PVTZ RIJCOSX Opt
|  2> %maxcore 4000
|  3> %basis
|  4>  AuxJ "aug-cc-PVTZ/JK"
|  5>  AuxC "aug-cc-PVTZ/C"
|  6>  newGTO H "cc-PVTZ" end
|  7>  newAuxJGTO H "cc-PVTZ/JK" end
|  8>  newAuxCGTO H "cc-PVTZ/C" end
|  9> end
| 10> %cpcm
| 11>  SMD true
| 12>  SMDsolvent "dichloromethane"
| 13> end
| 14> %pal nprocs 4 end
| 15> * xyz 0 1
| 16> C         -2.42590        2.44530        1.32870
| 17> C         -1.53060        1.40970        0.75600
| 18> N         -0.22420        1.39910        0.85070
| 19> C          0.23760        0.30770        0.18880
| 20> C          1.66070        0.03280        0.11160
| 21> C          2.22290       -0.69570       -0.93590
| 22> C          3.58340       -0.93750       -0.96820
| 23> C          4.40530       -0.45170        0.03490
| 24> C          3.85890        0.29320        1.06810
| 25> C          2.50060        0.53550        1.10660
| 26> C         -0.84840       -0.40410       -0.32620
| 27> C         -1.04630       -1.61470       -1.01420
| 28> C         -2.30990       -2.01210       -1.33370
| 29> C         -3.42320       -1.21070       -0.97010
| 30> C         -3.24010       -0.05980       -0.28070
| 31> N         -1.97810        0.33520        0.05040
| 32> H         -3.12110        2.00510        2.04440
| 33> H         -1.81580        3.18530        1.83680
| 34> H         -3.00160        2.93770        0.54440
| 35> H          1.59870       -1.04840       -1.74300
| 36> H          4.00740       -1.50310       -1.78600
| 37> H          5.46780       -0.64500        0.00630
| 38> H          4.49780        0.68450        1.84690
| 39> H          2.06160        1.11650        1.90270
| 40> H         -0.19020       -2.21980       -1.26340
| 41> H         -2.47940       -2.93840       -1.85910
| 42> H         -4.41940       -1.52640       -1.23400
| 43> H         -4.04840        0.57990        0.03740
| 44> *
| 45>
| 46>
| 47> $new_job
| 48> ! b3lyp aug-cc-PVTZ RIJCOSX SP
| 49> %maxcore 4000
| 50> %basis
| 51>  AuxJ "aug-cc-PVTZ/JK"
| 52>  AuxC "aug-cc-PVTZ/C"
| 53>  newGTO H "cc-PVTZ" end
| 54>  newAuxJGTO H "cc-PVTZ/JK" end
| 55>  newAuxCGTO H "cc-PVTZ/C" end
| 56> end
| 57> %cpcm
| 58>  SMD true
| 59>  SMDsolvent "dichloromethane"
| 60> end
| 61> %pal nprocs 4 end
| 62> %tddft
| 63>  nroots 10
| 64>  maxdim 7
| 65> end
| 66> * xyzfile 0 1
| 67>
| 68>                          ****END OF INPUT****
 Total Charge           Charge          ....    0
 Multiplicity           Mult            ....    1
 Number of Electrons    NEL             ....  110
FINAL SINGLE POINT ENERGY      -650.073252056171
FINAL SINGLE POINT ENERGY      -650.074854923027
FINAL SINGLE POINT ENERGY      -650.074990042773
FINAL SINGLE POINT ENERGY      -650.075017597739
FINAL SINGLE POINT ENERGY      -650.075023678935
                    ***********************HURRAY********************
FINAL SINGLE POINT ENERGY      -650.075025022800

CARTESIAN COORDINATES (ANGSTROEM)
---------------------------------
  C     -2.472754    2.455288    1.319862
  C     -1.551671    1.432058    0.761025
  N     -0.236743    1.426654    0.848695
  C      0.238635    0.322188    0.186249
  C      1.673848    0.038783    0.116381
  C      2.241777   -0.698287   -0.933729
  C      3.608187   -0.950390   -0.973168
  C      4.445228   -0.465694    0.027139
  C      3.897512    0.277720    1.069788
  C      2.532399    0.525542    1.115378
  C     -0.841525   -0.398248   -0.324946
  C     -1.047479   -1.611105   -1.025620
  C     -2.314588   -2.012289   -1.336646
  C     -3.436860   -1.215773   -0.959230
  C     -3.258830   -0.062854   -0.270525
  N     -1.980751    0.339327    0.053548
  H     -3.176250    2.020379    2.034508
  H     -1.887552    3.215578    1.832676
  H     -3.060604    2.942100    0.537288
  H      1.619789   -1.055763   -1.742093
  H      4.020956   -1.518570   -1.797276
  H      5.509214   -0.660578   -0.006938
  H      4.536591    0.662641    1.854642
  H      2.116605    1.096276    1.934171
  H     -0.194907   -2.214136   -1.298938
  H     -2.475999   -2.940150   -1.867623
  H     -4.440365   -1.527552   -1.209943
  H     -4.063763    0.576955    0.055526

 Multiplicity           Mult            ....    1
 Number of Electrons    NEL             ....  110
 Basis Dimension        Dim             ....  904

ORBITAL ENERGIES
----------------

  NO   OCC          E(Eh)            E(eV)
   0   2.0000     -14.390887      -391.5959
   1   2.0000     -14.304926      -389.2568
   2   2.0000     -10.231751      -278.4201
   3   2.0000     -10.220908      -278.1250
   4   2.0000     -10.214045      -277.9383
   5   2.0000     -10.194333      -277.4019
   6   2.0000     -10.186819      -277.1974
   7   2.0000     -10.185654      -277.1657
   8   2.0000     -10.182167      -277.0709
   9   2.0000     -10.181636      -277.0564
  10   2.0000     -10.170844      -276.7627
  11   2.0000     -10.170454      -276.7521
  12   2.0000     -10.170221      -276.7458
  13   2.0000     -10.169950      -276.7384
  14   2.0000     -10.168233      -276.6917
  15   2.0000     -10.167796      -276.6798
  16   2.0000      -1.033051       -28.1107
  17   2.0000      -0.911723       -24.8092
  18   2.0000      -0.855415       -23.2770
  19   2.0000      -0.823356       -22.4047
  20   2.0000      -0.786400       -21.3990
  21   2.0000      -0.761788       -20.7293
  22   2.0000      -0.743900       -20.2426
  23   2.0000      -0.740039       -20.1375
  24   2.0000      -0.682026       -18.5589
  25   2.0000      -0.650393       -17.6981
  26   2.0000      -0.630888       -17.1673
  27   2.0000      -0.606079       -16.4922
  28   2.0000      -0.585159       -15.9230
  29   2.0000      -0.577557       -15.7161
  30   2.0000      -0.523743       -14.2518
  31   2.0000      -0.504752       -13.7350
  32   2.0000      -0.493596       -13.4314
  33   2.0000      -0.479760       -13.0549
  34   2.0000      -0.472205       -12.8494
  35   2.0000      -0.459503       -12.5037
  36   2.0000      -0.453512       -12.3407
  37   2.0000      -0.441469       -12.0130
  38   2.0000      -0.424980       -11.5643
  39   2.0000      -0.413938       -11.2638
  40   2.0000      -0.407062       -11.0767
  41   2.0000      -0.405418       -11.0320
  42   2.0000      -0.394271       -10.7287
  43   2.0000      -0.383090       -10.4244
  44   2.0000      -0.374106       -10.1799
  45   2.0000      -0.364794        -9.9265
  46   2.0000      -0.347729        -9.4622
  47   2.0000      -0.343438        -9.3454
  48   2.0000      -0.335975        -9.1423
  49   2.0000      -0.315010        -8.5719
  50   2.0000      -0.283510        -7.7147
  51   2.0000      -0.266484        -7.2514
  52   2.0000      -0.259678        -7.0662
  53   2.0000      -0.253750        -6.9049
  54   2.0000      -0.187688        -5.1073
  55   0.0000      -0.045642        -1.2420
  56   0.0000      -0.020375        -0.5544
  57   0.0000      -0.011339        -0.3086
  58   0.0000      -0.000310        -0.0084
  59   0.0000       0.006271         0.1706

MULLIKEN ATOMIC CHARGES
-----------------------
   0 C :   -0.466919
   1 C :    0.195556
   2 N :   -0.872203
   3 C :    0.507355
   4 C :    2.004505
   5 C :   -0.491395
   6 C :   -0.439813
   7 C :   -0.216306
   8 C :   -0.508173
   9 C :   -0.604230
  10 C :    0.094986
  11 C :   -0.382282
  12 C :   -0.577222
  13 C :   -0.247070
  14 C :   -0.375362
  15 N :    0.447977
  16 H :    0.166768
  17 H :    0.145581
  18 H :    0.165553
  19 H :    0.033073
  20 H :    0.200280
  21 H :    0.202636
  22 H :    0.205026
  23 H :    0.098918
  24 H :    0.057583
  25 H :    0.227076
  26 H :    0.178834
  27 H :    0.249266
Sum of atomic charges:    0.0000000

LOEWDIN ATOMIC CHARGES
----------------------
   0 C :    0.066030
   1 C :   -0.638418
   2 N :    0.332602
   3 C :   -0.360809
   4 C :   -0.325599
   5 C :   -0.062698
   6 C :   -0.139615
   7 C :   -0.154734
   8 C :   -0.138514
   9 C :   -0.064259
  10 C :   -0.300382
  11 C :   -0.020239
  12 C :   -0.117802
  13 C :   -0.111590
  14 C :   -0.085984
  15 N :    0.112614
  16 H :    0.131057
  17 H :    0.131956
  18 H :    0.131181
  19 H :    0.193602
  20 H :    0.168596
  21 H :    0.165406
  22 H :    0.168700
  23 H :    0.192641
  24 H :    0.191674
  25 H :    0.169461
  26 H :    0.170775
  27 H :    0.194347

  Mayer bond orders larger than 0.100000
B(  0-C ,  1-C ) :   0.5419 B(  0-C , 16-H ) :   1.0010 B(  0-C , 17-H ) :   1.0391
B(  0-C , 18-H ) :   0.9999 B(  1-C ,  2-N ) :   1.1112 B(  1-C ,  3-C ) :  -0.1309
B(  1-C ,  4-C ) :   0.1005 B(  1-C , 10-C ) :  -0.3474 B(  1-C , 14-C ) :  -0.2793
B(  1-C , 15-N ) :   1.1305 B(  2-N ,  3-C ) :   0.1181 B(  2-N ,  4-C ) :  -0.1673
B(  2-N ,  9-C ) :   0.1034 B(  2-N , 10-C ) :   0.5280 B(  2-N , 15-N ) :  -0.1402
B(  3-C ,  5-C ) :   0.2976 B(  3-C ,  9-C ) :   0.2459 B(  3-C , 10-C ) :   1.2373
B(  3-C , 15-N ) :  -0.2757 B(  4-C ,  5-C ) :   0.5263 B(  4-C ,  9-C ) :   0.4593
B(  4-C , 10-C ) :  -0.2882 B(  4-C , 15-N ) :   0.1351 B(  4-C , 19-H ) :  -0.1787
B(  4-C , 23-H ) :  -0.1252 B(  5-C ,  6-C ) :   1.1486 B(  5-C ,  9-C ) :  -0.1287
B(  5-C , 19-H ) :   1.1930 B(  6-C ,  7-C ) :   1.2285 B(  6-C , 20-H ) :   0.9684
B(  7-C ,  8-C ) :   1.2085 B(  7-C , 21-H ) :   0.9464 B(  8-C ,  9-C ) :   1.2169
B(  8-C , 22-H ) :   0.9508 B(  9-C , 23-H ) :   1.1438 B( 10-C , 11-C ) :   0.8282
B( 10-C , 12-C ) :   0.1901 B( 10-C , 14-C ) :   0.3040 B( 10-C , 15-N ) :   0.5497
B( 10-C , 24-H ) :  -0.1370 B( 11-C , 12-C ) :   1.3474 B( 11-C , 14-C ) :  -0.1296
B( 11-C , 15-N ) :  -0.1192 B( 11-C , 24-H ) :   1.2113 B( 12-C , 13-C ) :   1.1596
B( 12-C , 14-C ) :   0.2030 B( 12-C , 15-N ) :  -0.1632 B( 12-C , 25-H ) :   0.9107
B( 13-C , 14-C ) :   1.2095 B( 13-C , 15-N ) :  -0.2130 B( 13-C , 26-H ) :   1.0224
B( 14-C , 15-N ) :   1.0970 B( 14-C , 27-H ) :   0.9015

-----------------------------------------------------------------------------
         ABSORPTION SPECTRUM VIA TRANSITION ELECTRIC DIPOLE MOMENTS
-----------------------------------------------------------------------------
State   Energy    Wavelength  fosc         T2        TX        TY        TZ
        (cm-1)      (nm)                 (au**2)    (au)      (au)      (au)
-----------------------------------------------------------------------------
   1   27220.0    367.4   0.306421638   3.70601   1.92088  -0.00569   0.12731
   2   32603.7    306.7   0.440839276   4.45133  -2.04720  -0.39056  -0.32829
   3   33521.6    298.3   0.047478651   0.46628   0.61643   0.15012   0.25251
   4   35651.4    280.5   0.003308119   0.03055  -0.12977   0.06374  -0.09822
   5   38297.2    261.1   0.018318671   0.15747  -0.09873   0.23162   0.30672
   6   38572.0    259.3   0.066359651   0.56638  -0.08222   0.67839   0.31529
   7   39205.0    255.1   0.009388483   0.07884  -0.09304   0.12389   0.23416
   8   41035.3    243.7   0.014531653   0.11658  -0.07207  -0.05612  -0.32900
   9   41699.7    239.8   0.002444270   0.01930  -0.01204  -0.10603   0.08893
  10   41805.4    239.2   0.014269115   0.11237   0.20150   0.26560   0.03495

FINAL SINGLE POINT ENERGY      -649.951001374339

DIPOLE MOMENT
-------------
                                X             Y             Z
Electronic contribution:      0.13987      -1.37103      -0.90192
Nuclear contribution   :     -2.06740       0.73473       0.40733
                        -----------------------------------------
Total Dipole Moment    :     -1.92754      -0.63630      -0.49459
                        -----------------------------------------
Magnitude (a.u.)       :      2.08923
Magnitude (Debye)      :      5.31041

Rotational constants in cm-1:     0.036973     0.011838     0.009136
Rotational constants in MHz :  1108.426427   354.900583   273.879956

                             ****ORCA TERMINATED NORMALLY****
TOTAL RUN TIME: 0 days 1 hours 22 minutes 58 seconds 112 msec
