                         Program Version 5.0.2 -  RELEASE  -
|  1> ! m062x defgrid3 aug-cc-PVTZ RIJCOSX Opt
|  2> %maxcore 4000
|  3> %basis
|  4>  AuxJ "aug-cc-PVTZ/JK"
|  5>  AuxC "aug-cc-PVTZ/C"
|  6>  newGTO H "cc-PVTZ" end
|  7>  newAuxJGTO H "cc-PVTZ/JK" end
|  8>  newAuxCGTO H "cc-PVTZ/C" end
|  9> end
| 10> %cpcm
| 11>  SMD true
| 12>  SMDsolvent "dichloromethane"
| 13> end
| 14> %pal nprocs 4 end
| 15> * xyz 0 1
| 16> C         -2.42590        2.44530        1.32870
| 17> C         -1.53060        1.40970        0.75600
| 18> N         -0.22420        1.39910        0.85070
| 19> C          0.23760        0.30770        0.18880
| 20> C          1.66070        0.03280        0.11160
| 21> C          2.22290       -0.69570       -0.93590
| 22> C          3.58340       -0.93750       -0.96820
| 23> C          4.40530       -0.45170        0.03490
| 24> C          3.85890        0.29320        1.06810
| 25> C          2.50060        0.53550        1.10660
| 26> C         -0.84840       -0.40410       -0.32620
| 27> C         -1.04630       -1.61470       -1.01420
| 28> C         -2.30990       -2.01210       -1.33370
| 29> C         -3.42320       -1.21070       -0.97010
| 30> C         -3.24010       -0.05980       -0.28070
| 31> N         -1.97810        0.33520        0.05040
| 32> H         -3.12110        2.00510        2.04440
| 33> H         -1.81580        3.18530        1.83680
| 34> H         -3.00160        2.93770        0.54440
| 35> H          1.59870       -1.04840       -1.74300
| 36> H          4.00740       -1.50310       -1.78600
| 37> H          5.46780       -0.64500        0.00630
| 38> H          4.49780        0.68450        1.84690
| 39> H          2.06160        1.11650        1.90270
| 40> H         -0.19020       -2.21980       -1.26340
| 41> H         -2.47940       -2.93840       -1.85910
| 42> H         -4.41940       -1.52640       -1.23400
| 43> H         -4.04840        0.57990        0.03740
| 44> *
| 45>
| 46>
| 47> $new_job
| 48> ! m062x defgrid3 aug-cc-PVTZ RIJCOSX SP
| 49> %maxcore 4000
| 50> %basis
| 51>  AuxJ "aug-cc-PVTZ/JK"
| 52>  AuxC "aug-cc-PVTZ/C"
| 53>  newGTO H "cc-PVTZ" end
| 54>  newAuxJGTO H "cc-PVTZ/JK" end
| 55>  newAuxCGTO H "cc-PVTZ/C" end
| 56> end
| 57> %cpcm
| 58>  SMD true
| 59>  SMDsolvent "dichloromethane"
| 60> end
| 61> %pal nprocs 4 end
| 62> %tddft
| 63>  nroots 10
| 64>  maxdim 7
| 65> end
| 66> * xyzfile 0 1
| 67>
| 68>                          ****END OF INPUT****
 Total Charge           Charge          ....    0
 Multiplicity           Mult            ....    1
 Number of Electrons    NEL             ....  110
FINAL SINGLE POINT ENERGY      -650.213960037392
FINAL SINGLE POINT ENERGY      -650.215101344487
FINAL SINGLE POINT ENERGY      -650.215310992411
FINAL SINGLE POINT ENERGY      -650.215337576512
FINAL SINGLE POINT ENERGY      -650.215343085279
                    ***********************HURRAY********************
FINAL SINGLE POINT ENERGY      -650.215344165573

CARTESIAN COORDINATES (ANGSTROEM)
---------------------------------
  C     -2.485129    2.439434    1.312446
  C     -1.544115    1.433536    0.759963
  N     -0.234520    1.436519    0.853839
  C      0.240341    0.334363    0.193510
  C      1.673855    0.046274    0.119937
  C      2.224343   -0.692340   -0.931459
  C      3.586272   -0.955820   -0.975497
  C      4.427043   -0.478346    0.021595
  C      3.892116    0.270609    1.063836
  C      2.531257    0.529125    1.113959
  C     -0.829878   -0.387257   -0.315991
  C     -1.031315   -1.606717   -1.016331
  C     -2.291873   -2.002302   -1.327372
  C     -3.419094   -1.202487   -0.955837
  C     -3.241595   -0.054513   -0.271268
  N     -1.963281    0.342178    0.055081
  H     -3.183176    1.984381    2.017551
  H     -1.914788    3.205774    1.830969
  H     -3.070763    2.912327    0.522031
  H      1.591431   -1.039016   -1.736928
  H      3.992784   -1.526726   -1.800183
  H      5.488893   -0.681808   -0.015805
  H      4.538130    0.651266    1.844373
  H      2.116855    1.104490    1.930837
  H     -0.176708   -2.211357   -1.281083
  H     -2.454044   -2.931298   -1.855565
  H     -4.421172   -1.513324   -1.210913
  H     -4.041770    0.593135    0.054506

 Multiplicity           Mult            ....    1
 Number of Electrons    NEL             ....  110
 Basis Dimension        Dim             ....  904

ORBITAL ENERGIES
----------------

  NO   OCC          E(Eh)            E(eV)
   0   2.0000     -14.824336      -403.3907
   1   2.0000     -14.740685      -401.1144
   2   2.0000     -10.602140      -288.4989
   3   2.0000     -10.591633      -288.2130
   4   2.0000     -10.582781      -287.9721
   5   2.0000     -10.562298      -287.4147
   6   2.0000     -10.555881      -287.2401
   7   2.0000     -10.553881      -287.1857
   8   2.0000     -10.551143      -287.1112
   9   2.0000     -10.549931      -287.0782
  10   2.0000     -10.539829      -286.8033
  11   2.0000     -10.539074      -286.7828
  12   2.0000     -10.538928      -286.7788
  13   2.0000     -10.536950      -286.7250
  14   2.0000     -10.536757      -286.7197
  15   2.0000     -10.536554      -286.7142
  16   2.0000      -1.154556       -31.4171
  17   2.0000      -1.023382       -27.8476
  18   2.0000      -0.965216       -26.2649
  19   2.0000      -0.928567       -25.2676
  20   2.0000      -0.889669       -24.2091
  21   2.0000      -0.862417       -23.4676
  22   2.0000      -0.843981       -22.9659
  23   2.0000      -0.839502       -22.8440
  24   2.0000      -0.774985       -21.0884
  25   2.0000      -0.738845       -20.1050
  26   2.0000      -0.718198       -19.5432
  27   2.0000      -0.693035       -18.8585
  28   2.0000      -0.668424       -18.1887
  29   2.0000      -0.660362       -17.9694
  30   2.0000      -0.602566       -16.3967
  31   2.0000      -0.579428       -15.7670
  32   2.0000      -0.568355       -15.4657
  33   2.0000      -0.556187       -15.1346
  34   2.0000      -0.552672       -15.0390
  35   2.0000      -0.530888       -14.4462
  36   2.0000      -0.525511       -14.2999
  37   2.0000      -0.510611       -13.8944
  38   2.0000      -0.493470       -13.4280
  39   2.0000      -0.482631       -13.1331
  40   2.0000      -0.475884       -12.9495
  41   2.0000      -0.471468       -12.8293
  42   2.0000      -0.460150       -12.5213
  43   2.0000      -0.451278       -12.2799
  44   2.0000      -0.442471       -12.0402
  45   2.0000      -0.424919       -11.5626
  46   2.0000      -0.417555       -11.3623
  47   2.0000      -0.402140       -10.9428
  48   2.0000      -0.396778       -10.7969
  49   2.0000      -0.378886       -10.3100
  50   2.0000      -0.354616        -9.6496
  51   2.0000      -0.322872        -8.7858
  52   2.0000      -0.316121        -8.6021
  53   2.0000      -0.309676        -8.4267
  54   2.0000      -0.234252        -6.3743
  55   0.0000      -0.015996        -0.4353
  56   0.0000       0.003991         0.1086
  57   0.0000       0.009047         0.2462
  58   0.0000       0.010705         0.2913
  59   0.0000       0.014102         0.3837

MULLIKEN ATOMIC CHARGES
-----------------------
   0 C :   -0.905675
   1 C :    0.443303
   2 N :   -0.902114
   3 C :    0.398961
   4 C :    2.581762
   5 C :   -0.410892
   6 C :   -0.580938
   7 C :   -0.172682
   8 C :   -0.603089
   9 C :   -0.540911
  10 C :    0.213604
  11 C :   -0.357799
  12 C :   -0.683292
  13 C :   -0.314739
  14 C :   -0.295968
  15 N :    0.589619
  16 H :    0.213455
  17 H :    0.162804
  18 H :    0.213491
  19 H :   -0.015365
  20 H :    0.126312
  21 H :    0.117842
  22 H :    0.124718
  23 H :    0.019718
  24 H :    0.053074
  25 H :    0.152068
  26 H :    0.101605
  27 H :    0.271125
Sum of atomic charges:   -0.0000000

LOEWDIN ATOMIC CHARGES
----------------------
   0 C :    0.073708
   1 C :   -0.651666
   2 N :    0.338179
   3 C :   -0.372825
   4 C :   -0.336769
   5 C :   -0.063148
   6 C :   -0.136948
   7 C :   -0.153538
   8 C :   -0.136001
   9 C :   -0.062342
  10 C :   -0.310658
  11 C :   -0.019373
  12 C :   -0.116025
  13 C :   -0.107028
  14 C :   -0.087368
  15 N :    0.102169
  16 H :    0.133374
  17 H :    0.133207
  18 H :    0.133184
  19 H :    0.198277
  20 H :    0.170180
  21 H :    0.167249
  22 H :    0.170240
  23 H :    0.196215
  24 H :    0.194539
  25 H :    0.171464
  26 H :    0.171762
  27 H :    0.199941

  Mayer bond orders larger than 0.100000
B(  0-C ,  1-C ) :   0.3402 B(  0-C , 15-N ) :  -0.1682 B(  0-C , 16-H ) :   1.0075
B(  0-C , 17-H ) :   1.0845 B(  0-C , 18-H ) :   1.0061 B(  1-C ,  2-N ) :   1.1398
B(  1-C ,  3-C ) :  -0.1717 B(  1-C ,  4-C ) :   0.1005 B(  1-C , 10-C ) :  -0.1808
B(  1-C , 11-C ) :   0.1123 B(  1-C , 14-C ) :  -0.4990 B(  1-C , 15-N ) :   1.1185
B(  1-C , 17-H ) :  -0.1063 B(  2-N ,  4-C ) :  -0.3270 B(  2-N ,  9-C ) :   0.1713
B(  2-N , 10-C ) :   0.5958 B(  2-N , 15-N ) :  -0.1206 B(  3-C ,  6-C ) :   0.2600
B(  3-C ,  8-C ) :   0.2137 B(  3-C ,  9-C ) :   0.1345 B(  3-C , 10-C ) :   1.5468
B(  3-C , 11-C ) :  -0.2169 B(  3-C , 15-N ) :  -0.2772 B(  4-C ,  5-C ) :   0.3590
B(  4-C ,  6-C ) :  -0.3539 B(  4-C ,  8-C ) :  -0.3233 B(  4-C ,  9-C ) :   0.1450
B(  4-C , 10-C ) :  -0.3653 B(  4-C , 11-C ) :  -0.2407 B(  4-C , 15-N ) :   0.1177
B(  4-C , 19-H ) :  -0.4709 B(  4-C , 23-H ) :  -0.3756 B(  5-C ,  6-C ) :   1.0731
B(  5-C ,  9-C ) :  -0.1687 B(  5-C , 11-C ) :   0.1190 B(  5-C , 19-H ) :   1.4283
B(  5-C , 20-H ) :  -0.1162 B(  6-C ,  7-C ) :   1.1776 B(  6-C ,  8-C ) :   0.1054
B(  6-C , 19-H ) :  -0.1142 B(  6-C , 20-H ) :   1.1197 B(  7-C ,  8-C ) :   1.1082
B(  7-C , 21-H ) :   1.0875 B(  8-C ,  9-C ) :   1.0972 B(  8-C , 22-H ) :   1.1027
B(  9-C , 10-C ) :   0.2122 B(  9-C , 22-H ) :  -0.1053 B(  9-C , 23-H ) :   1.3702
B( 10-C , 11-C ) :   0.1938 B( 10-C , 12-C ) :   0.2015 B( 10-C , 13-C ) :   0.1058
B( 10-C , 14-C ) :   0.3377 B( 10-C , 15-N ) :   0.4832 B( 10-C , 24-H ) :  -0.3532
B( 11-C , 12-C ) :   1.2073 B( 11-C , 14-C ) :  -0.2556 B( 11-C , 24-H ) :   1.3231
B( 12-C , 13-C ) :   1.0486 B( 12-C , 14-C ) :   0.2425 B( 12-C , 15-N ) :  -0.1989
B( 12-C , 25-H ) :   1.0608 B( 13-C , 14-C ) :   0.9907 B( 13-C , 15-N ) :  -0.2956
B( 13-C , 26-H ) :   1.1875 B( 14-C , 15-N ) :   1.0884 B( 14-C , 26-H ) :  -0.1574
B( 14-C , 27-H ) :   0.9502

-----------------------------------------------------------------------------
         ABSORPTION SPECTRUM VIA TRANSITION ELECTRIC DIPOLE MOMENTS
-----------------------------------------------------------------------------
State   Energy    Wavelength  fosc         T2        TX        TY        TZ
        (cm-1)      (nm)                 (au**2)    (au)      (au)      (au)
-----------------------------------------------------------------------------
   1   30417.0    328.8   0.351891378   3.80862  -1.94738   0.01170  -0.12731
   2   36358.2    275.0   0.469520676   4.25136  -1.94517  -0.53777  -0.42245
   3   37251.4    268.4   0.026990266   0.23853   0.42959   0.18697   0.13793
   4   39076.4    255.9   0.030967129   0.26089  -0.45640  -0.03647  -0.22641
   5   41827.4    239.1   0.012316123   0.09694   0.17203  -0.00575  -0.25944
   6   42118.5    237.4   0.019427533   0.15185  -0.22305   0.30425   0.09763
   7   42778.3    233.8   0.017838662   0.13728  -0.36546   0.02509   0.05560
   8   43194.5    231.5   0.084390706   0.64319   0.28962  -0.65096  -0.36820
   9   44532.2    224.6   0.004208609   0.03111  -0.05314   0.14026  -0.09283
  10   46164.0    216.6   0.011495592   0.08198   0.19514   0.17635  -0.11314

FINAL SINGLE POINT ENERGY      -650.076753957191

DIPOLE MOMENT
-------------
                                X             Y             Z
Electronic contribution:      0.21757      -1.31532      -0.86973
Nuclear contribution   :     -2.12776       0.65777       0.36645
                        -----------------------------------------
Total Dipole Moment    :     -1.91019      -0.65755      -0.50328
                        -----------------------------------------
Magnitude (a.u.)       :      2.08195
Magnitude (Debye)      :      5.29188

Rotational constants in cm-1:     0.037223     0.011933     0.009207
Rotational constants in MHz :  1115.914835   357.757296   276.014915

                             ****ORCA TERMINATED NORMALLY****
TOTAL RUN TIME: 0 days 2 hours 54 minutes 10 seconds 325 msec
