                         Program Version 5.0.2 -  RELEASE  -
|  1> ! pbe0 d3bj aug-cc-PVTZ RIJCOSX Opt
|  2> %maxcore 4000
|  3> %basis
|  4>  AuxJ "aug-cc-PVTZ/JK"
|  5>  AuxC "aug-cc-PVTZ/C"
|  6>  newGTO H "cc-PVTZ" end
|  7>  newAuxJGTO H "cc-PVTZ/JK" end
|  8>  newAuxCGTO H "cc-PVTZ/C" end
|  9> end
| 10> %cpcm
| 11>  SMD true
| 12>  SMDsolvent "dichloromethane"
| 13> end
| 14> %pal nprocs 4 end
| 15> * xyz 0 1
| 16> C         -2.42590        2.44530        1.32870
| 17> C         -1.53060        1.40970        0.75600
| 18> N         -0.22420        1.39910        0.85070
| 19> C          0.23760        0.30770        0.18880
| 20> C          1.66070        0.03280        0.11160
| 21> C          2.22290       -0.69570       -0.93590
| 22> C          3.58340       -0.93750       -0.96820
| 23> C          4.40530       -0.45170        0.03490
| 24> C          3.85890        0.29320        1.06810
| 25> C          2.50060        0.53550        1.10660
| 26> C         -0.84840       -0.40410       -0.32620
| 27> C         -1.04630       -1.61470       -1.01420
| 28> C         -2.30990       -2.01210       -1.33370
| 29> C         -3.42320       -1.21070       -0.97010
| 30> C         -3.24010       -0.05980       -0.28070
| 31> N         -1.97810        0.33520        0.05040
| 32> H         -3.12110        2.00510        2.04440
| 33> H         -1.81580        3.18530        1.83680
| 34> H         -3.00160        2.93770        0.54440
| 35> H          1.59870       -1.04840       -1.74300
| 36> H          4.00740       -1.50310       -1.78600
| 37> H          5.46780       -0.64500        0.00630
| 38> H          4.49780        0.68450        1.84690
| 39> H          2.06160        1.11650        1.90270
| 40> H         -0.19020       -2.21980       -1.26340
| 41> H         -2.47940       -2.93840       -1.85910
| 42> H         -4.41940       -1.52640       -1.23400
| 43> H         -4.04840        0.57990        0.03740
| 44> *
| 45>
| 46>
| 47> $new_job
| 48> ! b2gp-plyp aug-cc-PVTZ RIJCOSX SP
| 49> %maxcore 4000
| 50> %basis
| 51>  AuxJ "aug-cc-PVTZ/JK"
| 52>  AuxC "aug-cc-PVTZ/C"
| 53>  newGTO H "cc-PVTZ" end
| 54>  newAuxJGTO H "cc-PVTZ/JK" end
| 55>  newAuxCGTO H "cc-PVTZ/C" end
| 56> end
| 57> %cpcm
| 58>  SMD true
| 59>  SMDsolvent "dichloromethane"
| 60> end
| 61> %pal nprocs 4 end
| 62> %tddft
| 63>  nroots 10
| 64>  maxdim 7
| 65> end
| 66> * xyzfile 0 1
| 67>
| 68>                          ****END OF INPUT****
 Total Charge           Charge          ....    0
 Multiplicity           Mult            ....    1
 Number of Electrons    NEL             ....  110
Dispersion correction           -0.031140732
FINAL SINGLE POINT ENERGY      -649.736853517367
Dispersion correction            ... done
Dispersion correction           -0.031162892
FINAL SINGLE POINT ENERGY      -649.737640125800
Dispersion correction            ... done
Dispersion correction           -0.031164387
FINAL SINGLE POINT ENERGY      -649.737763302576
Dispersion correction            ... done
FINAL SINGLE POINT ENERGY      -649.737787378381
Dispersion correction            ... done
Dispersion correction           -0.031165556
FINAL SINGLE POINT ENERGY      -649.737793111779
Dispersion correction            ... done
                    ***********************HURRAY********************
Dispersion correction           -0.031164918
FINAL SINGLE POINT ENERGY      -649.737794855665

CARTESIAN COORDINATES (ANGSTROEM)
---------------------------------
  C     -2.471528    2.434585    1.318500
  C     -1.544316    1.426476    0.763242
  N     -0.232938    1.424554    0.853310
  C      0.240765    0.327735    0.189106
  C      1.668191    0.042533    0.116957
  C      2.225950   -0.704865   -0.925047
  C      3.587632   -0.961817   -0.964726
  C      4.426365   -0.470589    0.026381
  C      3.886242    0.284876    1.059764
  C      2.525634    0.537209    1.106068
  C     -0.834653   -0.391181   -0.324385
  C     -1.036358   -1.599886   -1.025209
  C     -2.300628   -1.998508   -1.336889
  C     -3.419255   -1.203405   -0.959617
  C     -3.239032   -0.055573   -0.268654
  N     -1.966653    0.339926    0.053890
  H     -3.174592    1.988322    2.027460
  H     -1.894459    3.198049    1.837037
  H     -3.059520    2.917453    0.532766
  H      1.597536   -1.065873   -1.728897
  H      3.997238   -1.540563   -1.784589
  H      5.490663   -0.670290   -0.008260
  H      4.529946    0.676730    1.839026
  H      2.108537    1.119120    1.918455
  H     -0.181399   -2.203061   -1.296222
  H     -2.462410   -2.926741   -1.869579
  H     -4.424638   -1.512350   -1.211101
  H     -4.042220    0.587235    0.061413

 Multiplicity           Mult            ....    1
 Number of Electrons    NEL             ....  110
 Basis Dimension        Dim             ....  904

ORBITAL ENERGIES
----------------

  NO   OCC          E(Eh)            E(eV)
   0   2.0000     -15.102228      -410.9525
   1   2.0000     -15.016476      -408.6191
   2   2.0000     -10.839844      -294.9672
   3   2.0000     -10.828200      -294.6503
   4   2.0000     -10.817762      -294.3663
   5   2.0000     -10.796272      -293.7815
   6   2.0000     -10.790656      -293.6287
   7   2.0000     -10.789124      -293.5870
   8   2.0000     -10.786820      -293.5243
   9   2.0000     -10.784322      -293.4563
  10   2.0000     -10.775287      -293.2105
  11   2.0000     -10.774642      -293.1929
  12   2.0000     -10.773676      -293.1666
  13   2.0000     -10.772688      -293.1397
  14   2.0000     -10.772018      -293.1215
  15   2.0000     -10.771361      -293.1036
  16   2.0000      -1.227975       -33.4149
  17   2.0000      -1.091181       -29.6926
  18   2.0000      -1.030212       -28.0335
  19   2.0000      -0.991012       -26.9668
  20   2.0000      -0.948294       -25.8044
  21   2.0000      -0.920403       -25.0454
  22   2.0000      -0.900879       -24.5142
  23   2.0000      -0.895821       -24.3765
  24   2.0000      -0.826262       -22.4837
  25   2.0000      -0.785187       -21.3660
  26   2.0000      -0.764114       -20.7926
  27   2.0000      -0.735672       -20.0187
  28   2.0000      -0.708388       -19.2762
  29   2.0000      -0.701754       -19.0957
  30   2.0000      -0.635328       -17.2882
  31   2.0000      -0.613885       -16.7047
  32   2.0000      -0.601055       -16.3555
  33   2.0000      -0.586448       -15.9581
  34   2.0000      -0.576222       -15.6798
  35   2.0000      -0.562485       -15.3060
  36   2.0000      -0.557301       -15.1649
  37   2.0000      -0.543670       -14.7940
  38   2.0000      -0.523597       -14.2478
  39   2.0000      -0.511933       -13.9304
  40   2.0000      -0.501354       -13.6425
  41   2.0000      -0.497430       -13.5358
  42   2.0000      -0.487251       -13.2588
  43   2.0000      -0.473585       -12.8869
  44   2.0000      -0.458969       -12.4892
  45   2.0000      -0.453875       -12.3506
  46   2.0000      -0.432415       -11.7666
  47   2.0000      -0.427508       -11.6331
  48   2.0000      -0.422017       -11.4837
  49   2.0000      -0.384764       -10.4700
  50   2.0000      -0.378003       -10.2860
  51   2.0000      -0.322493        -8.7755
  52   2.0000      -0.313433        -8.5289
  53   2.0000      -0.306468        -8.3394
  54   2.0000      -0.225354        -6.1322
  55   0.0000       0.020039         0.5453
  56   0.0000       0.028060         0.7636
  57   0.0000       0.032979         0.8974
  58   0.0000       0.036363         0.9895
  59   0.0000       0.046796         1.2734

MULLIKEN ATOMIC CHARGES
-----------------------
   0 C :   -0.565948
   1 C :    0.120970
   2 N :   -0.902617
   3 C :    0.502448
   4 C :    2.066150
   5 C :   -0.506545
   6 C :   -0.498510
   7 C :   -0.224670
   8 C :   -0.633197
   9 C :   -0.585275
  10 C :   -0.024143
  11 C :   -0.332443
  12 C :   -0.675060
  13 C :   -0.238635
  14 C :   -0.518641
  15 N :    0.602103
  16 H :    0.213671
  17 H :    0.188779
  18 H :    0.211019
  19 H :    0.072610
  20 H :    0.231561
  21 H :    0.241398
  22 H :    0.234262
  23 H :    0.147548
  24 H :    0.095770
  25 H :    0.265874
  26 H :    0.218481
  27 H :    0.293040
Sum of atomic charges:    0.0000000

LOEWDIN ATOMIC CHARGES
----------------------
   0 C :    0.072295
   1 C :   -0.643076
   2 N :    0.331184
   3 C :   -0.369956
   4 C :   -0.332583
   5 C :   -0.061927
   6 C :   -0.140100
   7 C :   -0.155477
   8 C :   -0.138961
   9 C :   -0.061834
  10 C :   -0.306850
  11 C :   -0.019348
  12 C :   -0.117130
  13 C :   -0.111414
  14 C :   -0.087707
  15 N :    0.103746
  16 H :    0.132606
  17 H :    0.132965
  18 H :    0.132732
  19 H :    0.196690
  20 H :    0.171198
  21 H :    0.167929
  22 H :    0.171227
  23 H :    0.196098
  24 H :    0.194140
  25 H :    0.172241
  26 H :    0.172275
  27 H :    0.199036

  Mayer bond orders larger than 0.100000
B(  0-C ,  1-C ) :   0.4749 B(  0-C , 16-H ) :   1.0035 B(  0-C , 17-H ) :   1.0420
B(  0-C , 18-H ) :   1.0008 B(  1-C ,  2-N ) :   1.1433 B(  1-C ,  3-C ) :  -0.1853
B(  1-C , 10-C ) :  -0.4048 B(  1-C , 11-C ) :   0.1030 B(  1-C , 14-C ) :  -0.4059
B(  1-C , 15-N ) :   1.0926 B(  2-N ,  4-C ) :  -0.2200 B(  2-N ,  5-C ) :   0.1010
B(  2-N ,  9-C ) :   0.1105 B(  2-N , 10-C ) :   0.5162 B(  2-N , 15-N ) :  -0.1368
B(  3-C ,  5-C ) :   0.2521 B(  3-C ,  6-C ) :   0.1318 B(  3-C ,  9-C ) :   0.1520
B(  3-C , 10-C ) :   1.4624 B(  3-C , 15-N ) :  -0.3946 B(  4-C ,  5-C ) :   0.4800
B(  4-C ,  6-C ) :  -0.1379 B(  4-C ,  8-C ) :  -0.1726 B(  4-C ,  9-C ) :   0.4042
B(  4-C , 10-C ) :  -0.2963 B(  4-C , 15-N ) :   0.1335 B(  4-C , 19-H ) :  -0.2061
B(  4-C , 23-H ) :  -0.1309 B(  5-C ,  6-C ) :   1.0772 B(  5-C , 19-H ) :   1.2298
B(  6-C ,  7-C ) :   1.2011 B(  6-C ,  8-C ) :   0.1183 B(  6-C , 19-H ) :  -0.1013
B(  6-C , 20-H ) :   0.9979 B(  7-C ,  8-C ) :   1.1957 B(  7-C , 21-H ) :   0.9659
B(  8-C ,  9-C ) :   1.1282 B(  8-C , 22-H ) :   0.9916 B(  9-C , 10-C ) :   0.1182
B(  9-C , 23-H ) :   1.1498 B( 10-C , 11-C ) :   0.6380 B( 10-C , 12-C ) :   0.2575
B( 10-C , 14-C ) :   0.4359 B( 10-C , 15-N ) :   0.6049 B( 10-C , 24-H ) :  -0.1707
B( 11-C , 12-C ) :   1.3413 B( 11-C , 14-C ) :  -0.1974 B( 11-C , 15-N ) :  -0.1488
B( 11-C , 24-H ) :   1.2488 B( 12-C , 13-C ) :   1.0528 B( 12-C , 14-C ) :   0.2476
B( 12-C , 15-N ) :  -0.1899 B( 12-C , 25-H ) :   0.9286 B( 13-C , 14-C ) :   1.1969
B( 13-C , 15-N ) :  -0.2687 B( 13-C , 26-H ) :   1.0455 B( 14-C , 15-N ) :   1.0698
B( 14-C , 27-H ) :   0.9084

MP2 TOTAL ENERGY:     -649.802829040 Eh

-----------------------------------------------------------------------------
         ABSORPTION SPECTRUM VIA TRANSITION ELECTRIC DIPOLE MOMENTS
-----------------------------------------------------------------------------
State   Energy    Wavelength  fosc         T2        TX        TY        TZ
        (cm-1)      (nm)                 (au**2)    (au)      (au)      (au)
-----------------------------------------------------------------------------
   1   29074.7    343.9   0.430666456   4.87642  -2.20002  -0.05173  -0.18342
   2   36154.2    276.6   0.140971282   1.28365  -1.03478  -0.36095  -0.28740
   3   35793.9    279.4   0.273688994   2.51724   1.39283   0.62375   0.43381
   4   37535.7    266.4   0.035662899   0.31279   0.50236   0.04574   0.24152
   5   41232.8    242.5   0.013716177   0.10951   0.20304   0.03731  -0.25864
   6   41545.7    240.7   0.014670406   0.11625   0.22059  -0.25997  -0.00212
   7   43207.0    231.4   0.012481847   0.09510  -0.30262  -0.05351   0.02577
   8   41657.6    240.1   0.111470478   0.88093  -0.42306   0.70988   0.44500
   9   44082.2    226.8   0.011680298   0.08723  -0.10431   0.27210  -0.04808
  10   45766.1    218.5   0.013578655   0.09768   0.18848   0.16703  -0.18507

Dispersion correction           -0.020881901
FINAL SINGLE POINT ENERGY      -648.591088823496

DIPOLE MOMENT
-------------
                                X             Y             Z
Electronic contribution:      0.16761      -1.32550      -0.88779
Nuclear contribution   :     -2.09843       0.69018       0.39380
                        -----------------------------------------
Total Dipole Moment    :     -1.93081      -0.63531      -0.49399
                        -----------------------------------------
Magnitude (a.u.)       :      2.09181
Magnitude (Debye)      :      5.31697

Rotational constants in cm-1:     0.037282     0.011952     0.009213
Rotational constants in MHz :  1117.691598   358.297606   276.187293

                             ****ORCA TERMINATED NORMALLY****
TOTAL RUN TIME: 0 days 2 hours 3 minutes 51 seconds 449 msec
