                         Program Version 5.0.2 -  RELEASE  -
|  1> ! pbe0 aug-cc-PVTZ RIJCOSX Opt
|  2> %maxcore 4000
|  3> %basis
|  4>  AuxJ "aug-cc-PVTZ/JK"
|  5>  AuxC "aug-cc-PVTZ/C"
|  6>  newGTO H "cc-PVTZ" end
|  7>  newAuxJGTO H "cc-PVTZ/JK" end
|  8>  newAuxCGTO H "cc-PVTZ/C" end
|  9> end
| 10> %cpcm
| 11>  SMD true
| 12>  SMDsolvent "dichloromethane"
| 13> end
| 14> %pal nprocs 4 end
| 15> * xyz 0 1
| 16> C         -2.42590        2.44530        1.32870
| 17> C         -1.53060        1.40970        0.75600
| 18> N         -0.22420        1.39910        0.85070
| 19> C          0.23760        0.30770        0.18880
| 20> C          1.66070        0.03280        0.11160
| 21> C          2.22290       -0.69570       -0.93590
| 22> C          3.58340       -0.93750       -0.96820
| 23> C          4.40530       -0.45170        0.03490
| 24> C          3.85890        0.29320        1.06810
| 25> C          2.50060        0.53550        1.10660
| 26> C         -0.84840       -0.40410       -0.32620
| 27> C         -1.04630       -1.61470       -1.01420
| 28> C         -2.30990       -2.01210       -1.33370
| 29> C         -3.42320       -1.21070       -0.97010
| 30> C         -3.24010       -0.05980       -0.28070
| 31> N         -1.97810        0.33520        0.05040
| 32> H         -3.12110        2.00510        2.04440
| 33> H         -1.81580        3.18530        1.83680
| 34> H         -3.00160        2.93770        0.54440
| 35> H          1.59870       -1.04840       -1.74300
| 36> H          4.00740       -1.50310       -1.78600
| 37> H          5.46780       -0.64500        0.00630
| 38> H          4.49780        0.68450        1.84690
| 39> H          2.06160        1.11650        1.90270
| 40> H         -0.19020       -2.21980       -1.26340
| 41> H         -2.47940       -2.93840       -1.85910
| 42> H         -4.41940       -1.52640       -1.23400
| 43> H         -4.04840        0.57990        0.03740
| 44> *
| 45>
| 46>
| 47> $new_job
| 48> ! pbe0 aug-cc-PVTZ RIJCOSX SP
| 49> %maxcore 4000
| 50> %basis
| 51>  AuxJ "aug-cc-PVTZ/JK"
| 52>  AuxC "aug-cc-PVTZ/C"
| 53>  newGTO H "cc-PVTZ" end
| 54>  newAuxJGTO H "cc-PVTZ/JK" end
| 55>  newAuxCGTO H "cc-PVTZ/C" end
| 56> end
| 57> %cpcm
| 58>  SMD true
| 59>  SMDsolvent "dichloromethane"
| 60> end
| 61> %pal nprocs 4 end
| 62> %tddft
| 63>  nroots 10
| 64>  maxdim 7
| 65> end
| 66> * xyzfile 0 1
| 67>
| 68>                          ****END OF INPUT****
 Total Charge           Charge          ....    0
 Multiplicity           Mult            ....    1
 Number of Electrons    NEL             ....  110
FINAL SINGLE POINT ENERGY      -649.705712782415
FINAL SINGLE POINT ENERGY      -649.706489087167
FINAL SINGLE POINT ENERGY      -649.706613251250
FINAL SINGLE POINT ENERGY      -649.706637233768
FINAL SINGLE POINT ENERGY      -649.706642958380
                    ***********************HURRAY********************
FINAL SINGLE POINT ENERGY      -649.706644677272

CARTESIAN COORDINATES (ANGSTROEM)
---------------------------------
  C     -2.466769    2.437205    1.316727
  C     -1.543566    1.424231    0.760548
  N     -0.232732    1.421118    0.850006
  C      0.238738    0.323627    0.187315
  C      1.668399    0.039464    0.116089
  C      2.231243   -0.702772   -0.927410
  C      3.594233   -0.955357   -0.966094
  C      4.430296   -0.465276    0.027936
  C      3.885817    0.284473    1.063351
  C      2.524051    0.532619    1.108243
  C     -0.838396   -0.394330   -0.324646
  C     -1.042426   -1.603774   -1.025351
  C     -2.307330   -2.001544   -1.335895
  C     -3.424980   -1.205051   -0.957981
  C     -3.242334   -0.056780   -0.268104
  N     -1.968765    0.338000    0.053278
  H     -3.170168    1.996007    2.028698
  H     -1.885557    3.199353    1.832914
  H     -3.054877    2.922447    0.532388
  H      1.606002   -1.064057   -1.733982
  H      4.006699   -1.529965   -1.787690
  H      5.495457   -0.661489   -0.005880
  H      4.526879    0.675474    1.845482
  H      2.105501    1.110692    1.922866
  H     -0.188699   -2.208440   -1.297891
  H     -2.470347   -2.929943   -1.868322
  H     -4.431226   -1.512874   -1.208202
  H     -4.045043    0.587044    0.061809

 Multiplicity           Mult            ....    1
 Number of Electrons    NEL             ....  110
 Basis Dimension        Dim             ....  904

ORBITAL ENERGIES
----------------

  NO   OCC          E(Eh)            E(eV)
   0   2.0000     -14.464535      -393.6000
   1   2.0000     -14.376448      -391.2030
   2   2.0000     -10.285169      -279.8737
   3   2.0000     -10.275193      -279.6022
   4   2.0000     -10.268361      -279.4163
   5   2.0000     -10.248078      -278.8644
   6   2.0000     -10.241617      -278.6886
   7   2.0000     -10.240472      -278.6574
   8   2.0000     -10.236925      -278.5609
   9   2.0000     -10.236375      -278.5459
  10   2.0000     -10.225556      -278.2515
  11   2.0000     -10.224881      -278.2332
  12   2.0000     -10.224752      -278.2296
  13   2.0000     -10.222920      -278.1798
  14   2.0000     -10.222821      -278.1771
  15   2.0000     -10.222473      -278.1676
  16   2.0000      -1.070250       -29.1230
  17   2.0000      -0.944265       -25.6948
  18   2.0000      -0.885932       -24.1074
  19   2.0000      -0.852541       -23.1988
  20   2.0000      -0.814408       -22.1612
  21   2.0000      -0.788805       -21.4645
  22   2.0000      -0.770070       -20.9547
  23   2.0000      -0.765900       -20.8412
  24   2.0000      -0.705439       -19.1960
  25   2.0000      -0.674135       -18.3441
  26   2.0000      -0.654005       -17.7964
  27   2.0000      -0.628005       -17.0889
  28   2.0000      -0.606059       -16.4917
  29   2.0000      -0.598172       -16.2771
  30   2.0000      -0.542964       -14.7748
  31   2.0000      -0.522990       -14.2313
  32   2.0000      -0.511500       -13.9186
  33   2.0000      -0.496182       -13.5018
  34   2.0000      -0.494235       -13.4488
  35   2.0000      -0.474783       -12.9195
  36   2.0000      -0.469326       -12.7710
  37   2.0000      -0.457429       -12.4473
  38   2.0000      -0.440232       -11.9793
  39   2.0000      -0.427813       -11.6414
  40   2.0000      -0.421518       -11.4701
  41   2.0000      -0.420267       -11.4361
  42   2.0000      -0.407176       -11.0798
  43   2.0000      -0.397322       -10.8117
  44   2.0000      -0.390693       -10.6313
  45   2.0000      -0.377029       -10.2595
  46   2.0000      -0.364474        -9.9178
  47   2.0000      -0.355040        -9.6611
  48   2.0000      -0.347459        -9.4548
  49   2.0000      -0.330478        -8.9928
  50   2.0000      -0.298417        -8.1203
  51   2.0000      -0.280182        -7.6241
  52   2.0000      -0.273306        -7.4370
  53   2.0000      -0.267098        -7.2681
  54   2.0000      -0.197832        -5.3833
  55   0.0000      -0.043032        -1.1710
  56   0.0000      -0.017500        -0.4762
  57   0.0000      -0.008006        -0.2179
  58   0.0000       0.005485         0.1493
  59   0.0000       0.011067         0.3012

MULLIKEN ATOMIC CHARGES
-----------------------
   0 C :   -0.417778
   1 C :    0.103679
   2 N :   -0.893458
   3 C :    0.710145
   4 C :    1.763883
   5 C :   -0.548570
   6 C :   -0.446482
   7 C :   -0.254921
   8 C :   -0.503217
   9 C :   -0.638419
  10 C :   -0.088510
  11 C :   -0.442979
  12 C :   -0.555853
  13 C :   -0.244752
  14 C :   -0.426294
  15 N :    0.400416
  16 H :    0.182631
  17 H :    0.170474
  18 H :    0.181400
  19 H :    0.120076
  20 H :    0.242496
  21 H :    0.249443
  22 H :    0.247883
  23 H :    0.158615
  24 H :    0.138597
  25 H :    0.268940
  26 H :    0.232628
  27 H :    0.289926
Sum of atomic charges:   -0.0000000

LOEWDIN ATOMIC CHARGES
----------------------
   0 C :    0.069178
   1 C :   -0.651121
   2 N :    0.339270
   3 C :   -0.369328
   4 C :   -0.333637
   5 C :   -0.064863
   6 C :   -0.141625
   7 C :   -0.157076
   8 C :   -0.140284
   9 C :   -0.065949
  10 C :   -0.308508
  11 C :   -0.020424
  12 C :   -0.119002
  13 C :   -0.111214
  14 C :   -0.088570
  15 N :    0.107060
  16 H :    0.134431
  17 H :    0.135086
  18 H :    0.134555
  19 H :    0.198152
  20 H :    0.172180
  21 H :    0.168983
  22 H :    0.172245
  23 H :    0.197405
  24 H :    0.195821
  25 H :    0.173160
  26 H :    0.174316
  27 H :    0.199760

  Mayer bond orders larger than 0.100000
B(  0-C ,  1-C ) :   0.6492 B(  0-C , 16-H ) :   0.9795 B(  0-C , 17-H ) :   1.0063
B(  0-C , 18-H ) :   0.9792 B(  1-C ,  2-N ) :   1.1589 B(  1-C ,  3-C ) :  -0.1170
B(  1-C , 10-C ) :  -0.3366 B(  1-C , 14-C ) :  -0.2641 B(  1-C , 15-N ) :   1.1681
B(  2-N ,  3-C ) :   0.1221 B(  2-N ,  4-C ) :  -0.1882 B(  2-N ,  5-C ) :   0.1028
B(  2-N ,  9-C ) :   0.1163 B(  2-N , 10-C ) :   0.5401 B(  2-N , 15-N ) :  -0.1432
B(  3-C ,  4-C ) :   0.2388 B(  3-C ,  5-C ) :   0.1677 B(  3-C ,  9-C ) :   0.1135
B(  3-C , 10-C ) :   1.3248 B(  3-C , 11-C ) :  -0.2116 B(  3-C , 15-N ) :  -0.2715
B(  4-C ,  5-C ) :   0.6527 B(  4-C ,  9-C ) :   0.6187 B(  4-C , 10-C ) :  -0.3311
B(  4-C , 15-N ) :   0.1211 B(  5-C ,  6-C ) :   1.2312 B(  5-C , 19-H ) :   1.0981
B(  6-C ,  7-C ) :   1.2886 B(  6-C , 20-H ) :   0.9217 B(  7-C ,  8-C ) :   1.2693
B(  7-C , 21-H ) :   0.8993 B(  8-C ,  9-C ) :   1.2829 B(  8-C , 22-H ) :   0.9056
B(  9-C , 23-H ) :   1.0694 B( 10-C , 11-C ) :   0.9982 B( 10-C , 12-C ) :   0.1633
B( 10-C , 14-C ) :   0.2772 B( 10-C , 15-N ) :   0.6049 B( 11-C , 12-C ) :   1.4605
B( 11-C , 14-C ) :  -0.1088 B( 11-C , 15-N ) :  -0.1412 B( 11-C , 24-H ) :   1.1129
B( 12-C , 13-C ) :   1.1832 B( 12-C , 14-C ) :   0.1768 B( 12-C , 15-N ) :  -0.1441
B( 12-C , 25-H ) :   0.8731 B( 13-C , 14-C ) :   1.3055 B( 13-C , 15-N ) :  -0.2039
B( 13-C , 26-H ) :   0.9555 B( 14-C , 15-N ) :   1.2031 B( 14-C , 27-H ) :   0.8628

-----------------------------------------------------------------------------
         ABSORPTION SPECTRUM VIA TRANSITION ELECTRIC DIPOLE MOMENTS
-----------------------------------------------------------------------------
State   Energy    Wavelength  fosc         T2        TX        TY        TZ
        (cm-1)      (nm)                 (au**2)    (au)      (au)      (au)
-----------------------------------------------------------------------------
   1   28000.5    357.1   0.317884781   3.73748   1.92906  -0.00740   0.12718
   2   33581.8    297.8   0.466209077   4.57038   2.06582   0.42176   0.35337
   3   34844.1    287.0   0.042561699   0.40213   0.56694   0.13588   0.24949
   4   37648.8    265.6   0.002980237   0.02606  -0.11353   0.09150  -0.06927
   5   39905.9    250.6   0.096397687   0.79525  -0.21436   0.72696   0.46992
   6   40721.2    245.6   0.004738800   0.03831   0.03267   0.15364  -0.11679
   7   41530.1    240.8   0.003624646   0.02873  -0.09095   0.01043   0.14266
   8   42939.8    232.9   0.020014705   0.15345  -0.09420  -0.08922  -0.36961
   9   43649.2    229.1   0.013620184   0.10273   0.22169   0.21968   0.07294
  10   43977.1    227.4   0.004484929   0.03357   0.06028   0.15957  -0.06691

FINAL SINGLE POINT ENERGY      -649.579064904498

DIPOLE MOMENT
-------------
                                X             Y             Z
Electronic contribution:      0.13811      -1.33671      -0.88933
Nuclear contribution   :     -2.08299       0.71560       0.40138
                        -----------------------------------------
Total Dipole Moment    :     -1.94488      -0.62110      -0.48795
                        -----------------------------------------
Magnitude (a.u.)       :      2.09915
Magnitude (Debye)      :      5.33561

Rotational constants in cm-1:     0.037276     0.011929     0.009202
Rotational constants in MHz :  1117.516585   357.623642   275.862984

                             ****ORCA TERMINATED NORMALLY****
TOTAL RUN TIME: 0 days 1 hours 41 minutes 6 seconds 691 msec
