                         Program Version 5.0.2 -  RELEASE  -
|  1> ! wb97x-d3 aug-cc-PVTZ RIJCOSX Opt
|  2> %maxcore 4000
|  3> %basis
|  4>  AuxJ "aug-cc-PVTZ/JK"
|  5>  AuxC "aug-cc-PVTZ/C"
|  6>  newGTO H "cc-PVTZ" end
|  7>  newAuxJGTO H "cc-PVTZ/JK" end
|  8>  newAuxCGTO H "cc-PVTZ/C" end
|  9> end
| 10> %cpcm
| 11>  SMD true
| 12>  SMDsolvent "dichloromethane"
| 13> end
| 14> %pal nprocs 4 end
| 15> * xyz 0 1
| 16> C         -2.42590        2.44530        1.32870
| 17> C         -1.53060        1.40970        0.75600
| 18> N         -0.22420        1.39910        0.85070
| 19> C          0.23760        0.30770        0.18880
| 20> C          1.66070        0.03280        0.11160
| 21> C          2.22290       -0.69570       -0.93590
| 22> C          3.58340       -0.93750       -0.96820
| 23> C          4.40530       -0.45170        0.03490
| 24> C          3.85890        0.29320        1.06810
| 25> C          2.50060        0.53550        1.10660
| 26> C         -0.84840       -0.40410       -0.32620
| 27> C         -1.04630       -1.61470       -1.01420
| 28> C         -2.30990       -2.01210       -1.33370
| 29> C         -3.42320       -1.21070       -0.97010
| 30> C         -3.24010       -0.05980       -0.28070
| 31> N         -1.97810        0.33520        0.05040
| 32> H         -3.12110        2.00510        2.04440
| 33> H         -1.81580        3.18530        1.83680
| 34> H         -3.00160        2.93770        0.54440
| 35> H          1.59870       -1.04840       -1.74300
| 36> H          4.00740       -1.50310       -1.78600
| 37> H          5.46780       -0.64500        0.00630
| 38> H          4.49780        0.68450        1.84690
| 39> H          2.06160        1.11650        1.90270
| 40> H         -0.19020       -2.21980       -1.26340
| 41> H         -2.47940       -2.93840       -1.85910
| 42> H         -4.41940       -1.52640       -1.23400
| 43> H         -4.04840        0.57990        0.03740
| 44> *
| 45>
| 46>
| 47> $new_job
| 48> ! wb97x-d3 aug-cc-PVTZ RIJCOSX SP
| 49> %maxcore 4000
| 50> %basis
| 51>  AuxJ "aug-cc-PVTZ/JK"
| 52>  AuxC "aug-cc-PVTZ/C"
| 53>  newGTO H "cc-PVTZ" end
| 54>  newAuxJGTO H "cc-PVTZ/JK" end
| 55>  newAuxCGTO H "cc-PVTZ/C" end
| 56> end
| 57> %cpcm
| 58>  SMD true
| 59>  SMDsolvent "dichloromethane"
| 60> end
| 61> %pal nprocs 4 end
| 62> %tddft
| 63>  nroots 10
| 64>  maxdim 7
| 65> end
| 66> * xyzfile 0 1
| 67>
| 68>                          ****END OF INPUT****
 Total Charge           Charge          ....    0
 Multiplicity           Mult            ....    1
 Number of Electrons    NEL             ....  110
Dispersion correction           -0.010207221
FINAL SINGLE POINT ENERGY      -650.280934052623
Dispersion correction            ... done
Dispersion correction           -0.010212572
FINAL SINGLE POINT ENERGY      -650.282206568315
Dispersion correction            ... done
Dispersion correction           -0.010224138
FINAL SINGLE POINT ENERGY      -650.282474073704
Dispersion correction            ... done
Dispersion correction           -0.010228774
FINAL SINGLE POINT ENERGY      -650.282496176434
Dispersion correction            ... done
Dispersion correction           -0.010232719
FINAL SINGLE POINT ENERGY      -650.282501994631
Dispersion correction            ... done
                    ***********************HURRAY********************
Dispersion correction           -0.010234094
FINAL SINGLE POINT ENERGY      -650.282502555728

CARTESIAN COORDINATES (ANGSTROEM)
---------------------------------
  C     -2.477882    2.474979    1.267374
  C     -1.546316    1.449890    0.733821
  N     -0.236617    1.457122    0.819787
  C      0.235589    0.342928    0.179886
  C      1.672219    0.050341    0.110052
  C      2.235344   -0.614678   -0.979939
  C      3.595642   -0.881974   -1.021023
  C      4.421178   -0.478867    0.018483
  C      3.873085    0.193697    1.102735
  C      2.513532    0.453462    1.149416
  C     -0.832966   -0.385962   -0.308995
  C     -1.029394   -1.622679   -0.983083
  C     -2.285712   -2.034264   -1.277072
  C     -3.415662   -1.232664   -0.913981
  C     -3.242698   -0.070611   -0.256712
  N     -1.965103    0.345174    0.052857
  H     -3.185543    2.045117    1.978839
  H     -1.901850    3.244327    1.776128
  H     -3.052632    2.946248    0.467536
  H      1.612404   -0.904284   -1.816459
  H      4.013862   -1.395490   -1.877790
  H      5.483447   -0.684514   -0.016928
  H      4.508137    0.512676    1.920009
  H      2.088556    0.968309    2.001415
  H     -0.169166   -2.223433   -1.241761
  H     -2.444646   -2.975895   -1.784671
  H     -4.418056   -1.554842   -1.156220
  H     -4.048653    0.575990    0.056494

 Multiplicity           Mult            ....    1
 Number of Electrons    NEL             ....  110
 Basis Dimension        Dim             ....  904

ORBITAL ENERGIES
----------------

  NO   OCC          E(Eh)            E(eV)
   0   2.0000     -14.499970      -394.5642
   1   2.0000     -14.413673      -392.2160
   2   2.0000     -10.339037      -281.3395
   3   2.0000     -10.328595      -281.0554
   4   2.0000     -10.319766      -280.8151
   5   2.0000     -10.299266      -280.2573
   6   2.0000     -10.294344      -280.1233
   7   2.0000     -10.293712      -280.1062
   8   2.0000     -10.289914      -280.0028
   9   2.0000     -10.288881      -279.9747
  10   2.0000     -10.279074      -279.7078
  11   2.0000     -10.278479      -279.6916
  12   2.0000     -10.278308      -279.6870
  13   2.0000     -10.276660      -279.6421
  14   2.0000     -10.276552      -279.6392
  15   2.0000     -10.276299      -279.6323
  16   2.0000      -1.159004       -31.5381
  17   2.0000      -1.032680       -28.1007
  18   2.0000      -0.979750       -26.6604
  19   2.0000      -0.944011       -25.6879
  20   2.0000      -0.906311       -24.6620
  21   2.0000      -0.880651       -23.9637
  22   2.0000      -0.863090       -23.4859
  23   2.0000      -0.858934       -23.3728
  24   2.0000      -0.797349       -21.6970
  25   2.0000      -0.761677       -20.7263
  26   2.0000      -0.742349       -20.2003
  27   2.0000      -0.718092       -19.5403
  28   2.0000      -0.695099       -18.9146
  29   2.0000      -0.687063       -18.6959
  30   2.0000      -0.631590       -17.1864
  31   2.0000      -0.608431       -16.5562
  32   2.0000      -0.597815       -16.2674
  33   2.0000      -0.583838       -15.8870
  34   2.0000      -0.581836       -15.8326
  35   2.0000      -0.560288       -15.2462
  36   2.0000      -0.554911       -15.0999
  37   2.0000      -0.543474       -14.7887
  38   2.0000      -0.525039       -14.2871
  39   2.0000      -0.513846       -13.9825
  40   2.0000      -0.507025       -13.7968
  41   2.0000      -0.503665       -13.7054
  42   2.0000      -0.491121       -13.3641
  43   2.0000      -0.483278       -13.1507
  44   2.0000      -0.473823       -12.8934
  45   2.0000      -0.456994       -12.4354
  46   2.0000      -0.449513       -12.2319
  47   2.0000      -0.435381       -11.8473
  48   2.0000      -0.429815       -11.6959
  49   2.0000      -0.410284       -11.1644
  50   2.0000      -0.380602       -10.3567
  51   2.0000      -0.353006        -9.6058
  52   2.0000      -0.346888        -9.4393
  53   2.0000      -0.341489        -9.2924
  54   2.0000      -0.264898        -7.2082
  55   0.0000       0.027107         0.7376
  56   0.0000       0.048984         1.3329
  57   0.0000       0.052378         1.4253
  58   0.0000       0.053360         1.4520
  59   0.0000       0.056510         1.5377

MULLIKEN ATOMIC CHARGES
-----------------------
   0 C :   -0.523921
   1 C :    0.093182
   2 N :   -0.756896
   3 C :    0.381038
   4 C :    2.262235
   5 C :   -0.586489
   6 C :   -0.531620
   7 C :   -0.208225
   8 C :   -0.531011
   9 C :   -0.734096
  10 C :   -0.039269
  11 C :   -0.482815
  12 C :   -0.622880
  13 C :   -0.139788
  14 C :   -0.531576
  15 N :    0.509457
  16 H :    0.196938
  17 H :    0.167579
  18 H :    0.195407
  19 H :    0.126331
  20 H :    0.234334
  21 H :    0.241087
  22 H :    0.239354
  23 H :    0.132013
  24 H :    0.141212
  25 H :    0.258557
  26 H :    0.205235
  27 H :    0.304627
Sum of atomic charges:   -0.0000000

LOEWDIN ATOMIC CHARGES
----------------------
   0 C :    0.073943
   1 C :   -0.646909
   2 N :    0.334285
   3 C :   -0.371906
   4 C :   -0.335361
   5 C :   -0.063446
   6 C :   -0.136955
   7 C :   -0.153677
   8 C :   -0.135914
   9 C :   -0.063334
  10 C :   -0.312703
  11 C :   -0.018243
  12 C :   -0.116807
  13 C :   -0.109019
  14 C :   -0.086817
  15 N :    0.104189
  16 H :    0.131522
  17 H :    0.132539
  18 H :    0.131662
  19 H :    0.199121
  20 H :    0.170817
  21 H :    0.168356
  22 H :    0.170981
  23 H :    0.196552
  24 H :    0.195402
  25 H :    0.171507
  26 H :    0.171949
  27 H :    0.198266

  Mayer bond orders larger than 0.100000
B(  0-C ,  1-C ) :   0.4091 B(  0-C , 16-H ) :   0.9981 B(  0-C , 17-H ) :   1.0491
B(  0-C , 18-H ) :   0.9980 B(  1-C ,  2-N ) :   1.0946 B(  1-C ,  3-C ) :  -0.1669
B(  1-C , 10-C ) :  -0.3428 B(  1-C , 11-C ) :   0.1032 B(  1-C , 14-C ) :  -0.4603
B(  1-C , 15-N ) :   1.1017 B(  1-C , 17-H ) :  -0.1012 B(  2-N ,  3-C ) :   0.4470
B(  2-N ,  4-C ) :  -0.2578 B(  2-N ,  5-C ) :   0.1000 B(  2-N ,  9-C ) :   0.1507
B(  2-N , 10-C ) :   0.4138 B(  2-N , 15-N ) :  -0.1536 B(  3-C ,  4-C ) :   0.1157
B(  3-C ,  5-C ) :   0.2633 B(  3-C ,  6-C ) :   0.1252 B(  3-C ,  9-C ) :   0.2421
B(  3-C , 10-C ) :   1.6931 B(  3-C , 11-C ) :  -0.3412 B(  3-C , 15-N ) :  -0.2653
B(  4-C ,  5-C ) :   0.3274 B(  4-C ,  9-C ) :   0.2077 B(  4-C , 10-C ) :  -0.4291
B(  4-C , 11-C ) :  -0.1425 B(  4-C , 15-N ) :   0.1546 B(  4-C , 19-H ) :  -0.2354
B(  4-C , 23-H ) :  -0.1906 B(  5-C ,  6-C ) :   1.0761 B(  5-C ,  9-C ) :  -0.1236
B(  5-C , 19-H ) :   1.2157 B(  6-C ,  7-C ) :   1.1843 B(  6-C ,  8-C ) :   0.1233
B(  6-C , 20-H ) :   0.9817 B(  7-C ,  8-C ) :   1.1565 B(  7-C , 21-H ) :   0.9488
B(  8-C ,  9-C ) :   1.1756 B(  8-C , 22-H ) :   0.9540 B(  9-C , 23-H ) :   1.2001
B( 10-C , 11-C ) :   0.7103 B( 10-C , 12-C ) :   0.2022 B( 10-C , 14-C ) :   0.3501
B( 10-C , 15-N ) :   0.4281 B( 10-C , 24-H ) :  -0.1594 B( 11-C , 12-C ) :   1.5039
B( 11-C , 14-C ) :  -0.1987 B( 11-C , 15-N ) :  -0.1415 B( 11-C , 24-H ) :   1.1964
B( 12-C , 13-C ) :   1.0042 B( 12-C , 14-C ) :   0.2347 B( 12-C , 15-N ) :  -0.1723
B( 12-C , 25-H ) :   0.9081 B( 13-C , 14-C ) :   1.1492 B( 13-C , 15-N ) :  -0.2501
B( 13-C , 26-H ) :   1.0443 B( 14-C , 15-N ) :   1.0582 B( 14-C , 27-H ) :   0.8489

-----------------------------------------------------------------------------
         ABSORPTION SPECTRUM VIA TRANSITION ELECTRIC DIPOLE MOMENTS
-----------------------------------------------------------------------------
State   Energy    Wavelength  fosc         T2        TX        TY        TZ
        (cm-1)      (nm)                 (au**2)    (au)      (au)      (au)
-----------------------------------------------------------------------------
   1   31724.5    315.2   0.349478272   3.62661  -1.90067   0.00633  -0.11836
   2   38088.3    262.5   0.459532071   3.97192   1.80539   0.69537   0.47847
   3   40498.0    246.9   0.019787554   0.16085  -0.30544  -0.15541  -0.20836
   4   42358.3    236.1   0.013877961   0.10786  -0.29757   0.12231  -0.06596
   5   43713.4    228.8   0.134415413   1.01230  -0.77397   0.56754   0.30194
   6   47567.4    210.2   0.011631823   0.08050   0.09635   0.12127  -0.23772
   7   47663.9    209.8   0.007740448   0.05346   0.11150   0.14378   0.14268
   8   47774.0    209.3   0.012704079   0.08754   0.16286   0.15189   0.19481
   9   49075.6    203.8   0.036541922   0.24513  -0.02358  -0.16400   0.46656
  10   50596.8    197.6   0.057748739   0.37575  -0.11929  -0.56461  -0.20671

Dispersion correction           -0.010234094
FINAL SINGLE POINT ENERGY      -650.137954953423

DIPOLE MOMENT
-------------
                                X             Y             Z
Electronic contribution:      0.24484      -1.36459      -0.87134
Nuclear contribution   :     -2.09640       0.66511       0.38060
                        -----------------------------------------
Total Dipole Moment    :     -1.85157      -0.69948      -0.49074
                        -----------------------------------------
Magnitude (a.u.)       :      2.03921
Magnitude (Debye)      :      5.18327

Rotational constants in cm-1:     0.037135     0.011910     0.009252
Rotational constants in MHz :  1113.279053   357.048610   277.372809

                             ****ORCA TERMINATED NORMALLY****
TOTAL RUN TIME: 0 days 3 hours 15 minutes 56 seconds 318 msec
