                         Program Version 5.0.2 -  RELEASE  -
|  1> ! x3lyp aug-cc-PVTZ RIJCOSX Opt
|  2> %maxcore 4000
|  3> %basis
|  4>  AuxJ "aug-cc-PVTZ/JK"
|  5>  AuxC "aug-cc-PVTZ/C"
|  6>  newGTO H "cc-PVTZ" end
|  7>  newAuxJGTO H "cc-PVTZ/JK" end
|  8>  newAuxCGTO H "cc-PVTZ/C" end
|  9> end
| 10> %cpcm
| 11>  SMD true
| 12>  SMDsolvent "dichloromethane"
| 13> end
| 14> %pal nprocs 4 end
| 15> * xyz 0 1
| 16> C         -2.42590        2.44530        1.32870
| 17> C         -1.53060        1.40970        0.75600
| 18> N         -0.22420        1.39910        0.85070
| 19> C          0.23760        0.30770        0.18880
| 20> C          1.66070        0.03280        0.11160
| 21> C          2.22290       -0.69570       -0.93590
| 22> C          3.58340       -0.93750       -0.96820
| 23> C          4.40530       -0.45170        0.03490
| 24> C          3.85890        0.29320        1.06810
| 25> C          2.50060        0.53550        1.10660
| 26> C         -0.84840       -0.40410       -0.32620
| 27> C         -1.04630       -1.61470       -1.01420
| 28> C         -2.30990       -2.01210       -1.33370
| 29> C         -3.42320       -1.21070       -0.97010
| 30> C         -3.24010       -0.05980       -0.28070
| 31> N         -1.97810        0.33520        0.05040
| 32> H         -3.12110        2.00510        2.04440
| 33> H         -1.81580        3.18530        1.83680
| 34> H         -3.00160        2.93770        0.54440
| 35> H          1.59870       -1.04840       -1.74300
| 36> H          4.00740       -1.50310       -1.78600
| 37> H          5.46780       -0.64500        0.00630
| 38> H          4.49780        0.68450        1.84690
| 39> H          2.06160        1.11650        1.90270
| 40> H         -0.19020       -2.21980       -1.26340
| 41> H         -2.47940       -2.93840       -1.85910
| 42> H         -4.41940       -1.52640       -1.23400
| 43> H         -4.04840        0.57990        0.03740
| 44> *
| 45>
| 46>
| 47> $new_job
| 48> ! x3lyp aug-cc-PVTZ RIJCOSX SP
| 49> %maxcore 4000
| 50> %basis
| 51>  AuxJ "aug-cc-PVTZ/JK"
| 52>  AuxC "aug-cc-PVTZ/C"
| 53>  newGTO H "cc-PVTZ" end
| 54>  newAuxJGTO H "cc-PVTZ/JK" end
| 55>  newAuxCGTO H "cc-PVTZ/C" end
| 56> end
| 57> %cpcm
| 58>  SMD true
| 59>  SMDsolvent "dichloromethane"
| 60> end
| 61> %pal nprocs 4 end
| 62> %tddft
| 63>  nroots 10
| 64>  maxdim 7
| 65> end
| 66> * xyzfile 0 1
| 67>
| 68>                          ****END OF INPUT****
 Total Charge           Charge          ....    0
 Multiplicity           Mult            ....    1
 Number of Electrons    NEL             ....  110
FINAL SINGLE POINT ENERGY      -649.896392212553
FINAL SINGLE POINT ENERGY      -649.897772467234
FINAL SINGLE POINT ENERGY      -649.897904239422
FINAL SINGLE POINT ENERGY      -649.897931818779
FINAL SINGLE POINT ENERGY      -649.897938006498
                    ***********************HURRAY********************
FINAL SINGLE POINT ENERGY      -649.897939446878

CARTESIAN COORDINATES (ANGSTROEM)
---------------------------------
  C     -2.472347    2.451013    1.321158
  C     -1.550366    1.430219    0.762291
  N     -0.236542    1.425093    0.850251
  C      0.238736    0.322262    0.187017
  C      1.672969    0.038831    0.116796
  C      2.239062   -0.702390   -0.930069
  C      3.604626   -0.954563   -0.969799
  C      4.442163   -0.465904    0.027009
  C      3.895936    0.281495    1.066466
  C      2.531686    0.529514    1.112285
  C     -0.840390   -0.397026   -0.324812
  C     -1.045947   -1.608450   -1.027125
  C     -2.312161   -2.008526   -1.338556
  C     -3.434044   -1.212682   -0.960259
  C     -3.255901   -0.061647   -0.270374
  N     -1.978528    0.339265    0.053961
  H     -3.175928    2.014223    2.034114
  H     -1.888734    3.211146    1.835341
  H     -3.059851    2.937602    0.538588
  H      1.616176   -1.063339   -1.735787
  H      4.016456   -1.526173   -1.791532
  H      5.505750   -0.660947   -0.007330
  H      4.535691    0.669587    1.848718
  H      2.116450    1.103733    1.928502
  H     -0.193603   -2.210977   -1.301008
  H     -2.473715   -2.935276   -1.870734
  H     -4.437215   -1.523923   -1.211477
  H     -4.060326    0.577937    0.056564

 Multiplicity           Mult            ....    1
 Number of Electrons    NEL             ....  110
 Basis Dimension        Dim             ....  904

ORBITAL ENERGIES
----------------

  NO   OCC          E(Eh)            E(eV)
   0   2.0000     -14.418351      -392.3433
   1   2.0000     -14.332371      -390.0037
   2   2.0000     -10.254789      -279.0470
   3   2.0000     -10.243965      -278.7525
   4   2.0000     -10.236918      -278.5607
   5   2.0000     -10.217118      -278.0219
   6   2.0000     -10.209747      -277.8213
   7   2.0000     -10.208474      -277.7867
   8   2.0000     -10.205059      -277.6938
   9   2.0000     -10.204550      -277.6799
  10   2.0000     -10.193719      -277.3852
  11   2.0000     -10.193130      -277.3692
  12   2.0000     -10.193083      -277.3679
  13   2.0000     -10.192805      -277.3603
  14   2.0000     -10.191048      -277.3125
  15   2.0000     -10.190600      -277.3003
  16   2.0000      -1.041352       -28.3366
  17   2.0000      -0.919138       -25.0110
  18   2.0000      -0.862527       -23.4706
  19   2.0000      -0.830143       -22.5893
  20   2.0000      -0.792927       -21.5767
  21   2.0000      -0.768107       -20.9013
  22   2.0000      -0.750113       -20.4116
  23   2.0000      -0.746193       -20.3049
  24   2.0000      -0.687713       -18.7136
  25   2.0000      -0.655802       -17.8453
  26   2.0000      -0.636248       -17.3132
  27   2.0000      -0.611290       -16.6340
  28   2.0000      -0.590036       -16.0557
  29   2.0000      -0.582520       -15.8512
  30   2.0000      -0.528311       -14.3761
  31   2.0000      -0.509168       -13.8552
  32   2.0000      -0.497885       -13.5481
  33   2.0000      -0.483982       -13.1698
  34   2.0000      -0.476773       -12.9736
  35   2.0000      -0.463530       -12.6133
  36   2.0000      -0.457487       -12.4489
  37   2.0000      -0.445538       -12.1237
  38   2.0000      -0.428839       -11.6693
  39   2.0000      -0.417715       -11.3666
  40   2.0000      -0.410708       -11.1759
  41   2.0000      -0.409004       -11.1296
  42   2.0000      -0.397803       -10.8248
  43   2.0000      -0.386566       -10.5190
  44   2.0000      -0.377742       -10.2789
  45   2.0000      -0.368161       -10.0182
  46   2.0000      -0.351010        -9.5515
  47   2.0000      -0.346714        -9.4346
  48   2.0000      -0.339220        -9.2306
  49   2.0000      -0.317905        -8.6506
  50   2.0000      -0.287087        -7.8120
  51   2.0000      -0.268764        -7.3134
  52   2.0000      -0.261916        -7.1271
  53   2.0000      -0.255888        -6.9631
  54   2.0000      -0.189133        -5.1466
  55   0.0000      -0.043013        -1.1705
  56   0.0000      -0.017602        -0.4790
  57   0.0000      -0.008810        -0.2397
  58   0.0000      -0.000900        -0.0245
  59   0.0000       0.007111         0.1935

MULLIKEN ATOMIC CHARGES
-----------------------
   0 C :   -0.444105
   1 C :    0.181625
   2 N :   -0.888924
   3 C :    0.531052
   4 C :    1.987291
   5 C :   -0.492589
   6 C :   -0.434225
   7 C :   -0.208151
   8 C :   -0.508091
   9 C :   -0.595173
  10 C :    0.067192
  11 C :   -0.371256
  12 C :   -0.571726
  13 C :   -0.238859
  14 C :   -0.370372
  15 N :    0.443414
  16 H :    0.165828
  17 H :    0.144578
  18 H :    0.164568
  19 H :    0.029785
  20 H :    0.199124
  21 H :    0.200670
  22 H :    0.203583
  23 H :    0.098207
  24 H :    0.054657
  25 H :    0.226333
  26 H :    0.177785
  27 H :    0.247778
Sum of atomic charges:   -0.0000000

LOEWDIN ATOMIC CHARGES
----------------------
   0 C :    0.065990
   1 C :   -0.640486
   2 N :    0.333411
   3 C :   -0.361732
   4 C :   -0.326610
   5 C :   -0.063034
   6 C :   -0.139871
   7 C :   -0.155200
   8 C :   -0.138797
   9 C :   -0.064488
  10 C :   -0.301423
  11 C :   -0.020442
  12 C :   -0.117965
  13 C :   -0.111627
  14 C :   -0.086550
  15 N :    0.112049
  16 H :    0.131729
  17 H :    0.132484
  18 H :    0.131868
  19 H :    0.194254
  20 H :    0.169169
  21 H :    0.165972
  22 H :    0.169266
  23 H :    0.193321
  24 H :    0.192213
  25 H :    0.170048
  26 H :    0.171298
  27 H :    0.195154

  Mayer bond orders larger than 0.100000
B(  0-C ,  1-C ) :   0.5667 B(  0-C , 16-H ) :   0.9972 B(  0-C , 17-H ) :   1.0326
B(  0-C , 18-H ) :   0.9967 B(  1-C ,  2-N ) :   1.1033 B(  1-C ,  3-C ) :  -0.1271
B(  1-C , 10-C ) :  -0.3587 B(  1-C , 14-C ) :  -0.2878 B(  1-C , 15-N ) :   1.1297
B(  2-N ,  4-C ) :  -0.1696 B(  2-N ,  5-C ) :   0.1005 B(  2-N ,  9-C ) :   0.1068
B(  2-N , 10-C ) :   0.5456 B(  2-N , 15-N ) :  -0.1402 B(  3-C ,  5-C ) :   0.2895
B(  3-C ,  9-C ) :   0.2359 B(  3-C , 10-C ) :   1.2463 B(  3-C , 15-N ) :  -0.2808
B(  4-C ,  5-C ) :   0.5294 B(  4-C ,  9-C ) :   0.4687 B(  4-C , 10-C ) :  -0.2930
B(  4-C , 15-N ) :   0.1366 B(  4-C , 19-H ) :  -0.1803 B(  4-C , 23-H ) :  -0.1244
B(  5-C ,  6-C ) :   1.1616 B(  5-C ,  9-C ) :  -0.1266 B(  5-C , 19-H ) :   1.1963
B(  6-C ,  7-C ) :   1.2350 B(  6-C , 20-H ) :   0.9619 B(  7-C ,  8-C ) :   1.2126
B(  7-C , 21-H ) :   0.9426 B(  8-C ,  9-C ) :   1.2197 B(  8-C , 22-H ) :   0.9467
B(  9-C , 23-H ) :   1.1415 B( 10-C , 11-C ) :   0.8431 B( 10-C , 12-C ) :   0.2040
B( 10-C , 14-C ) :   0.3090 B( 10-C , 15-N ) :   0.5538 B( 10-C , 24-H ) :  -0.1328
B( 11-C , 12-C ) :   1.3548 B( 11-C , 14-C ) :  -0.1347 B( 11-C , 15-N ) :  -0.1225
B( 11-C , 24-H ) :   1.2089 B( 12-C , 13-C ) :   1.1644 B( 12-C , 14-C ) :   0.2072
B( 12-C , 15-N ) :  -0.1638 B( 12-C , 25-H ) :   0.9034 B( 13-C , 14-C ) :   1.2223
B( 13-C , 15-N ) :  -0.2123 B( 13-C , 26-H ) :   1.0160 B( 14-C , 15-N ) :   1.1090
B( 14-C , 27-H ) :   0.8979

-----------------------------------------------------------------------------
         ABSORPTION SPECTRUM VIA TRANSITION ELECTRIC DIPOLE MOMENTS
-----------------------------------------------------------------------------
State   Energy    Wavelength  fosc         T2        TX        TY        TZ
        (cm-1)      (nm)                 (au**2)    (au)      (au)      (au)
-----------------------------------------------------------------------------
   1   27388.5    365.1   0.311460767   3.74378   1.93067  -0.00620   0.12752
   2   32851.2    304.4   0.442364851   4.43307  -2.03895  -0.40206  -0.33777
   3   33778.5    296.0   0.045831172   0.44668  -0.60376  -0.15619  -0.24032
   4   35343.0    282.9   0.005720618   0.05329   0.18770  -0.04659   0.12603
   5   38119.3    262.3   0.007312835   0.06316   0.09065  -0.05579  -0.22765
   6   38711.8    258.3   0.052933670   0.45016  -0.07966   0.61350   0.25968
   7   39147.3    255.4   0.037552261   0.31580  -0.14694   0.39650   0.37013
   8   41370.9    241.7   0.012392204   0.09861  -0.07044   0.03293  -0.30425
   9   41511.3    240.9   0.012433984   0.09861   0.19300   0.24762   0.00684
  10   41673.6    240.0   0.010397620   0.08214   0.10945   0.20377   0.16922

FINAL SINGLE POINT ENERGY      -649.773148247841

DIPOLE MOMENT
-------------
                                X             Y             Z
Electronic contribution:      0.14186      -1.36607      -0.90041
Nuclear contribution   :     -2.07159       0.72940       0.40400
                        -----------------------------------------
Total Dipole Moment    :     -1.92972      -0.63667      -0.49641
                        -----------------------------------------
Magnitude (a.u.)       :      2.09179
Magnitude (Debye)      :      5.31692

Rotational constants in cm-1:     0.037035     0.011858     0.009148
Rotational constants in MHz :  1110.287036   355.498159   274.236976

                             ****ORCA TERMINATED NORMALLY****
TOTAL RUN TIME: 0 days 1 hours 43 minutes 59 seconds 379 msec
