                         Program Version 5.0.2 -  RELEASE  -
|  1> ! b3lyp aug-cc-PVTZ RIJCOSX Opt
|  2> %maxcore 4000
|  3> %basis
|  4>  AuxJ "aug-cc-PVTZ/JK"
|  5>  AuxC "aug-cc-PVTZ/C"
|  6>  newGTO H "cc-PVTZ" end
|  7>  newAuxJGTO H "cc-PVTZ/JK" end
|  8>  newAuxCGTO H "cc-PVTZ/C" end
|  9> end
| 10> %cpcm
| 11>  SMD true
| 12>  SMDsolvent "chloroform"
| 13> end
| 14> %pal nprocs 4 end
| 15> * xyz 0 1
| 16> C          2.63170        2.93990        1.16310
| 17> C          1.32380        2.62580        1.54390
| 18> C          0.74590        1.44980        1.14140
| 19> C          1.44530        0.52960        0.33820
| 20> C          2.80920        0.79650        0.06560
| 21> C          3.36580        2.02840        0.45190
| 22> C          3.61690       -0.21340       -0.52300
| 23> C          3.12690       -1.46470       -0.69130
| 24> C          1.75930       -1.75730       -0.44100
| 25> C          1.28950       -3.08870       -0.51880
| 26> C         -0.00240       -3.37950       -0.21260
| 27> C         -0.94380       -2.34060       -0.02890
| 28> C         -2.30870       -2.64690        0.21990
| 29> C         -3.24230       -1.66890        0.29770
| 30> C         -2.90210       -0.32930       -0.03160
| 31> C         -3.89910        0.65190       -0.17360
| 32> C         -3.59490        1.90070       -0.64630
| 33> C         -2.28250        2.19220       -1.02970
| 34> C         -1.28630        1.26620       -0.85920
| 35> C         -1.55140        0.00340       -0.29700
| 36> C         -0.53090       -0.99550       -0.11270
| 37> C          0.87200       -0.71840       -0.09410
| 38> H          3.06750        3.88200        1.46180
| 39> H          0.76880        3.31200        2.16650
| 40> H         -0.25440        1.21190        1.46850
| 41> H          4.39820        2.22940        0.20270
| 42> H          4.64570        0.01930       -0.75770
| 43> H          3.76360       -2.26820       -1.03360
| 44> H          1.99210       -3.87110       -0.76710
| 45> H         -0.34570       -4.40290       -0.16360
| 46> H         -2.57920       -3.68400        0.35910
| 47> H         -4.27190       -1.89760        0.53290
| 48> H         -4.91940        0.39010        0.06890
| 49> H         -4.36680        2.64770       -0.75860
| 50> H         -2.05490        3.15160       -1.47070
| 51> H         -0.28510        1.49890       -1.18690
| 52> *
| 53>
| 54>
| 55> $new_job
| 56> ! b3lyp aug-cc-PVTZ RIJCOSX SP
| 57> %maxcore 4000
| 58> %basis
| 59>  AuxJ "aug-cc-PVTZ/JK"
| 60>  AuxC "aug-cc-PVTZ/C"
| 61>  newGTO H "cc-PVTZ" end
| 62>  newAuxJGTO H "cc-PVTZ/JK" end
| 63>  newAuxCGTO H "cc-PVTZ/C" end
| 64> end
| 65> %cpcm
| 66>  SMD true
| 67>  SMDsolvent "chloroform"
| 68> end
| 69> %pal nprocs 4 end
| 70> %tddft
| 71>  nroots 10
| 72>  maxdim 7
| 73> end
| 74> * xyzfile 0 1
| 75>
| 76>                          ****END OF INPUT****
 Total Charge           Charge          ....    0
 Multiplicity           Mult            ....    1
 Number of Electrons    NEL             ....  146
FINAL SINGLE POINT ENERGY      -846.574958989840
FINAL SINGLE POINT ENERGY      -846.574729335520
FINAL SINGLE POINT ENERGY      -846.577228428405
FINAL SINGLE POINT ENERGY      -846.577338386907
FINAL SINGLE POINT ENERGY      -846.577352202793
FINAL SINGLE POINT ENERGY      -846.577353723859
                    ***********************HURRAY********************
FINAL SINGLE POINT ENERGY      -846.577353547236

CARTESIAN COORDINATES (ANGSTROEM)
---------------------------------
  C      2.766529    2.938625    1.210427
  C      1.437155    2.665838    1.575192
  C      0.818000    1.512963    1.150012
  C      1.485854    0.562036    0.342861
  C      2.866801    0.796403    0.074026
  C      3.467647    2.008893    0.481971
  C      3.657599   -0.230596   -0.520131
  C      3.133959   -1.466673   -0.710155
  C      1.755611   -1.736422   -0.452516
  C      1.286062   -3.075059   -0.517584
  C     -0.004379   -3.366887   -0.202804
  C     -0.948777   -2.324185   -0.007866
  C     -2.316255   -2.657261    0.233780
  C     -3.276516   -1.701229    0.281323
  C     -2.957034   -0.350609   -0.045178
  C     -3.987818    0.600459   -0.219804
  C     -3.719188    1.857745   -0.703014
  C     -2.399827    2.192679   -1.051347
  C     -1.374265    1.298613   -0.847220
  C     -1.601076    0.017772   -0.290591
  C     -0.546063   -0.967767   -0.097961
  C      0.874019   -0.685739   -0.092820
  H      3.241695    3.856533    1.531243
  H      0.896755    3.362132    2.203417
  H     -0.196756    1.324802    1.462665
  H      4.509893    2.174393    0.237954
  H      4.698008   -0.027062   -0.740708
  H      3.754319   -2.281319   -1.062723
  H      1.989783   -3.860053   -0.764298
  H     -0.347812   -4.392714   -0.157637
  H     -2.568178   -3.700744    0.376788
  H     -4.307910   -1.958698    0.487367
  H     -5.005535    0.303189    0.001918
  H     -4.518691    2.572576   -0.847895
  H     -2.187175    3.158056   -1.492281
  H     -0.376035    1.579608   -1.142307

 Multiplicity           Mult            ....    1
 Number of Electrons    NEL             ....  146
 Basis Dimension        Dim             .... 1208

ORBITAL ENERGIES
----------------

  NO   OCC          E(Eh)            E(eV)
   0   2.0000     -10.195704      -277.4392
   1   2.0000     -10.195282      -277.4277
   2   2.0000     -10.190457      -277.2964
   3   2.0000     -10.190446      -277.2961
   4   2.0000     -10.187543      -277.2172
   5   2.0000     -10.187509      -277.2162
   6   2.0000     -10.185761      -277.1686
   7   2.0000     -10.185713      -277.1673
   8   2.0000     -10.175202      -276.8813
   9   2.0000     -10.174910      -276.8734
  10   2.0000     -10.174898      -276.8731
  11   2.0000     -10.174434      -276.8604
  12   2.0000     -10.174065      -276.8504
  13   2.0000     -10.174049      -276.8499
  14   2.0000     -10.173745      -276.8417
  15   2.0000     -10.173684      -276.8400
  16   2.0000     -10.172950      -276.8200
  17   2.0000     -10.172864      -276.8177
  18   2.0000     -10.172488      -276.8075
  19   2.0000     -10.172377      -276.8044
  20   2.0000     -10.171865      -276.7905
  21   2.0000     -10.171747      -276.7873
  22   2.0000      -0.893068       -24.3016
  23   2.0000      -0.871754       -23.7216
  24   2.0000      -0.849982       -23.1292
  25   2.0000      -0.822409       -22.3789
  26   2.0000      -0.797681       -21.7060
  27   2.0000      -0.785815       -21.3831
  28   2.0000      -0.761259       -20.7149
  29   2.0000      -0.747448       -20.3391
  30   2.0000      -0.735493       -20.0138
  31   2.0000      -0.718574       -19.5534
  32   2.0000      -0.710257       -19.3271
  33   2.0000      -0.640298       -17.4234
  34   2.0000      -0.636498       -17.3200
  35   2.0000      -0.612468       -16.6661
  36   2.0000      -0.608854       -16.5678
  37   2.0000      -0.608527       -16.5589
  38   2.0000      -0.575512       -15.6605
  39   2.0000      -0.550723       -14.9859
  40   2.0000      -0.528418       -14.3790
  41   2.0000      -0.524560       -14.2740
  42   2.0000      -0.499594       -13.5947
  43   2.0000      -0.495654       -13.4874
  44   2.0000      -0.489971       -13.3328
  45   2.0000      -0.463420       -12.6103
  46   2.0000      -0.460885       -12.5413
  47   2.0000      -0.449582       -12.2338
  48   2.0000      -0.430866       -11.7245
  49   2.0000      -0.430726       -11.7207
  50   2.0000      -0.429200       -11.6791
  51   2.0000      -0.423108       -11.5134
  52   2.0000      -0.417626       -11.3642
  53   2.0000      -0.413773       -11.2593
  54   2.0000      -0.403212       -10.9720
  55   2.0000      -0.396382       -10.7861
  56   2.0000      -0.393290       -10.7020
  57   2.0000      -0.384060       -10.4508
  58   2.0000      -0.366700        -9.9784
  59   2.0000      -0.363323        -9.8865
  60   2.0000      -0.362397        -9.8613
  61   2.0000      -0.347266        -9.4496
  62   2.0000      -0.342093        -9.3088
  63   2.0000      -0.334051        -9.0900
  64   2.0000      -0.325585        -8.8596
  65   2.0000      -0.321084        -8.7371
  66   2.0000      -0.301640        -8.2080
  67   2.0000      -0.291473        -7.9314
  68   2.0000      -0.280041        -7.6203
  69   2.0000      -0.256069        -6.9680
  70   2.0000      -0.233563        -6.3556
  71   2.0000      -0.215029        -5.8512
  72   2.0000      -0.209866        -5.7108
  73   0.0000      -0.058344        -1.5876
  74   0.0000      -0.056682        -1.5424
  75   0.0000      -0.031896        -0.8679
  76   0.0000      -0.011837        -0.3221
  77   0.0000      -0.001391        -0.0379

MULLIKEN ATOMIC CHARGES
-----------------------
   0 C :   -0.379038
   1 C :   -0.575297
   2 C :   -0.643669
   3 C :    0.779999
   4 C :    1.179641
   5 C :   -0.619576
   6 C :   -0.624580
   7 C :   -0.312282
   8 C :    1.367079
   9 C :   -0.449957
  10 C :   -0.524735
  11 C :    1.300833
  12 C :   -0.298520
  13 C :   -0.646934
  14 C :    1.050896
  15 C :   -0.660031
  16 C :   -0.412386
  17 C :   -0.604694
  18 C :   -0.575775
  19 C :    0.877209
  20 C :   -0.500831
  21 C :   -0.557891
  22 H :    0.198203
  23 H :    0.188195
  24 H :    0.043191
  25 H :    0.127292
  26 H :    0.120687
  27 H :    0.119692
  28 H :    0.117491
  29 H :    0.123536
  30 H :    0.121755
  31 H :    0.120390
  32 H :    0.126858
  33 H :    0.205619
  34 H :    0.184682
  35 H :    0.032947
Sum of atomic charges:   -0.0000000

LOEWDIN ATOMIC CHARGES
----------------------
   0 C :   -0.119933
   1 C :   -0.109772
   2 C :   -0.054537
   3 C :   -0.206085
   4 C :   -0.318358
   5 C :   -0.052060
   6 C :   -0.021802
   7 C :   -0.021770
   8 C :   -0.295466
   9 C :   -0.017556
  10 C :   -0.017517
  11 C :   -0.295493
  12 C :   -0.021793
  13 C :   -0.021993
  14 C :   -0.318397
  15 C :   -0.052077
  16 C :   -0.119966
  17 C :   -0.109672
  18 C :   -0.054112
  19 C :   -0.205283
  20 C :   -0.095439
  21 C :   -0.095585
  22 H :    0.168385
  23 H :    0.170457
  24 H :    0.212787
  25 H :    0.188950
  26 H :    0.189481
  27 H :    0.191248
  28 H :    0.190999
  29 H :    0.190941
  30 H :    0.191169
  31 H :    0.189525
  32 H :    0.188937
  33 H :    0.168401
  34 H :    0.170491
  35 H :    0.212894

  Mayer bond orders larger than 0.100000
B(  0-C ,  1-C ) :   1.1933 B(  0-C ,  2-C ) :   0.1154 B(  0-C ,  5-C ) :   1.2641
B(  0-C ,  6-C ) :  -0.1241 B(  0-C , 21-C ) :   0.1513 B(  0-C , 22-H ) :   0.9516
B(  1-C ,  2-C ) :   1.3975 B(  1-C ,  3-C ) :  -0.1977 B(  1-C ,  5-C ) :   0.1010
B(  1-C , 21-C ) :   0.1774 B(  1-C , 23-H ) :   0.9742 B(  2-C ,  3-C ) :   0.9401
B(  2-C ,  4-C ) :  -0.2261 B(  2-C , 18-C ) :   0.1100 B(  2-C , 24-H ) :   1.1364
B(  3-C ,  4-C ) :   0.6305 B(  3-C ,  5-C ) :   0.1090 B(  3-C ,  6-C ) :   0.1995
B(  3-C ,  7-C ) :  -0.3904 B(  3-C ,  8-C ) :  -0.4588 B(  3-C , 10-C ) :   0.2923
B(  3-C , 11-C ) :   0.1178 B(  3-C , 19-C ) :  -0.1107 B(  3-C , 20-C ) :   0.3192
B(  3-C , 21-C ) :   0.4330 B(  3-C , 24-H ) :  -0.1024 B(  4-C ,  5-C ) :   0.4410
B(  4-C ,  6-C ) :   0.3530 B(  4-C ,  7-C ) :   0.1294 B(  5-C ,  6-C ) :  -0.1091
B(  5-C ,  7-C ) :  -0.1643 B(  5-C , 21-C ) :   0.1920 B(  5-C , 25-H ) :   1.0636
B(  6-C ,  7-C ) :   1.1498 B(  6-C ,  9-C ) :  -0.3228 B(  6-C , 20-C ) :   0.4031
B(  6-C , 26-H ) :   1.0833 B(  7-C ,  8-C ) :   0.5956 B(  7-C ,  9-C ) :  -0.2713
B(  7-C , 10-C ) :  -0.2437 B(  7-C , 12-C ) :   0.1201 B(  7-C , 21-C ) :   0.1178
B(  7-C , 27-H ) :   1.0885 B(  8-C ,  9-C ) :   0.4735 B(  8-C , 20-C ) :  -0.2606
B(  8-C , 21-C ) :  -0.1686 B(  9-C , 10-C ) :   1.3357 B(  9-C , 12-C ) :  -0.2180
B(  9-C , 19-C ) :   0.2306 B(  9-C , 20-C ) :  -0.2836 B(  9-C , 28-H ) :   1.1085
B( 10-C , 11-C ) :   0.5533 B( 10-C , 12-C ) :  -0.2956 B( 10-C , 13-C ) :  -0.3092
B( 10-C , 21-C ) :  -0.1930 B( 10-C , 29-H ) :   1.1003 B( 11-C , 12-C ) :   0.5511
B( 11-C , 14-C ) :  -0.1128 B( 11-C , 19-C ) :  -0.4014 B( 11-C , 20-C ) :  -0.1554
B( 11-C , 21-C ) :  -0.1924 B( 12-C , 13-C ) :   1.1666 B( 12-C , 15-C ) :  -0.1614
B( 12-C , 19-C ) :  -0.3768 B( 12-C , 20-C ) :   0.1112 B( 12-C , 21-C ) :  -0.1077
B( 12-C , 30-H ) :   1.0865 B( 13-C , 14-C ) :   0.3698 B( 13-C , 15-C ) :  -0.1299
B( 13-C , 19-C ) :   0.1523 B( 13-C , 20-C ) :   0.1210 B( 13-C , 21-C ) :   0.3586
B( 13-C , 31-H ) :   1.0824 B( 14-C , 15-C ) :   0.4777 B( 14-C , 18-C ) :  -0.2018
B( 14-C , 19-C ) :   0.6432 B( 14-C , 20-C ) :   0.1795 B( 15-C , 16-C ) :   1.2996
B( 15-C , 17-C ) :   0.1204 B( 15-C , 19-C ) :   0.1033 B( 15-C , 20-C ) :   0.2719
B( 15-C , 32-H ) :   1.0697 B( 16-C , 17-C ) :   1.2134 B( 16-C , 20-C ) :   0.1070
B( 16-C , 33-H ) :   0.9391 B( 17-C , 18-C ) :   1.3359 B( 17-C , 19-C ) :  -0.2623
B( 17-C , 20-C ) :   0.1709 B( 17-C , 34-H ) :   0.9830 B( 18-C , 19-C ) :   0.9761
B( 18-C , 35-H ) :   1.1456 B( 19-C , 20-C ) :   0.4016 B( 19-C , 21-C ) :   0.3970
B( 20-C , 21-C ) :   1.1561 B( 21-C , 27-H ) :   0.1003

-----------------------------------------------------------------------------
         ABSORPTION SPECTRUM VIA TRANSITION ELECTRIC DIPOLE MOMENTS
-----------------------------------------------------------------------------
State   Energy    Wavelength  fosc         T2        TX        TY        TZ
        (cm-1)      (nm)                 (au**2)    (au)      (au)      (au)
-----------------------------------------------------------------------------
   1   27184.9    367.9   0.002664784   0.03227   0.03470  -0.17509  -0.02021
   2   29342.4    340.8   0.014465106   0.16229   0.38148   0.08432  -0.09825
   3   30908.0    323.5   0.661349481   7.04425   2.55983   0.45167   0.53622
   4   32746.6    305.4   0.028197461   0.28348   0.42445   0.31837  -0.04429
   5   32765.7    305.2   0.140114429   1.40780  -0.31681   1.13450   0.14264
   6   33701.4    296.7   0.008479345   0.08283   0.05855  -0.28006  -0.03110
   7   35597.9    280.9   0.196765390   1.81970   0.25446  -1.31679  -0.14496
   8   36511.2    273.9   0.562137627   5.06864   2.20886   0.43541   0.00114
   9   37460.7    266.9   0.012430235   0.10924  -0.31005  -0.07849   0.08336
  10   38054.6    262.8   0.047243384   0.40870  -0.12326   0.62338   0.07007

FINAL SINGLE POINT ENERGY      -846.453490081382

DIPOLE MOMENT
-------------
                                X             Y             Z
Electronic contribution:      0.63322      -3.18803      -0.33320
Nuclear contribution   :     -0.60888       3.07589       0.31530
                        -----------------------------------------
Total Dipole Moment    :      0.02434      -0.11214      -0.01790
                        -----------------------------------------
Magnitude (a.u.)       :      0.11614
Magnitude (Debye)      :      0.29520

Rotational constants in cm-1:     0.015049     0.009253     0.006183
Rotational constants in MHz :   451.145058   277.397720   185.369387

                             ****ORCA TERMINATED NORMALLY****
TOTAL RUN TIME: 0 days 3 hours 54 minutes 46 seconds 978 msec
