                         Program Version 5.0.2 -  RELEASE  -
|  1> ! m062x defgrid3 aug-cc-PVTZ RIJCOSX Opt
|  2> %maxcore 4000
|  3> %basis
|  4>  AuxJ "aug-cc-PVTZ/JK"
|  5>  AuxC "aug-cc-PVTZ/C"
|  6>  newGTO H "cc-PVTZ" end
|  7>  newAuxJGTO H "cc-PVTZ/JK" end
|  8>  newAuxCGTO H "cc-PVTZ/C" end
|  9> end
| 10> %cpcm
| 11>  SMD true
| 12>  SMDsolvent "chloroform"
| 13> end
| 14> %pal nprocs 4 end
| 15> * xyz 0 1
| 16> C          2.63170        2.93990        1.16310
| 17> C          1.32380        2.62580        1.54390
| 18> C          0.74590        1.44980        1.14140
| 19> C          1.44530        0.52960        0.33820
| 20> C          2.80920        0.79650        0.06560
| 21> C          3.36580        2.02840        0.45190
| 22> C          3.61690       -0.21340       -0.52300
| 23> C          3.12690       -1.46470       -0.69130
| 24> C          1.75930       -1.75730       -0.44100
| 25> C          1.28950       -3.08870       -0.51880
| 26> C         -0.00240       -3.37950       -0.21260
| 27> C         -0.94380       -2.34060       -0.02890
| 28> C         -2.30870       -2.64690        0.21990
| 29> C         -3.24230       -1.66890        0.29770
| 30> C         -2.90210       -0.32930       -0.03160
| 31> C         -3.89910        0.65190       -0.17360
| 32> C         -3.59490        1.90070       -0.64630
| 33> C         -2.28250        2.19220       -1.02970
| 34> C         -1.28630        1.26620       -0.85920
| 35> C         -1.55140        0.00340       -0.29700
| 36> C         -0.53090       -0.99550       -0.11270
| 37> C          0.87200       -0.71840       -0.09410
| 38> H          3.06750        3.88200        1.46180
| 39> H          0.76880        3.31200        2.16650
| 40> H         -0.25440        1.21190        1.46850
| 41> H          4.39820        2.22940        0.20270
| 42> H          4.64570        0.01930       -0.75770
| 43> H          3.76360       -2.26820       -1.03360
| 44> H          1.99210       -3.87110       -0.76710
| 45> H         -0.34570       -4.40290       -0.16360
| 46> H         -2.57920       -3.68400        0.35910
| 47> H         -4.27190       -1.89760        0.53290
| 48> H         -4.91940        0.39010        0.06890
| 49> H         -4.36680        2.64770       -0.75860
| 50> H         -2.05490        3.15160       -1.47070
| 51> H         -0.28510        1.49890       -1.18690
| 52> *
| 53>
| 54>
| 55> $new_job
| 56> ! m062x defgrid3 aug-cc-PVTZ RIJCOSX SP
| 57> %maxcore 4000
| 58> %basis
| 59>  AuxJ "aug-cc-PVTZ/JK"
| 60>  AuxC "aug-cc-PVTZ/C"
| 61>  newGTO H "cc-PVTZ" end
| 62>  newAuxJGTO H "cc-PVTZ/JK" end
| 63>  newAuxCGTO H "cc-PVTZ/C" end
| 64> end
| 65> %cpcm
| 66>  SMD true
| 67>  SMDsolvent "chloroform"
| 68> end
| 69> %pal nprocs 4 end
| 70> %tddft
| 71>  nroots 10
| 72>  maxdim 7
| 73> end
| 74> * xyzfile 0 1
| 75>
| 76>                          ****END OF INPUT****
 Total Charge           Charge          ....    0
 Multiplicity           Mult            ....    1
 Number of Electrons    NEL             ....  146
FINAL SINGLE POINT ENERGY      -846.776179321958
FINAL SINGLE POINT ENERGY      -846.776141073273
FINAL SINGLE POINT ENERGY      -846.777336709046
FINAL SINGLE POINT ENERGY      -846.777490862554
FINAL SINGLE POINT ENERGY      -846.777501672633
                    ***********************HURRAY********************
FINAL SINGLE POINT ENERGY      -846.777504337402

CARTESIAN COORDINATES (ANGSTROEM)
---------------------------------
  C      2.727044    2.940979    1.182958
  C      1.397876    2.661382    1.544518
  C      0.792558    1.502787    1.129888
  C      1.474769    0.556452    0.331397
  C      2.845985    0.794232    0.071772
  C      3.438285    2.011790    0.471566
  C      3.649890   -0.234099   -0.507399
  C      3.135906   -1.469403   -0.691817
  C      1.753161   -1.738813   -0.447771
  C      1.285540   -3.077962   -0.520209
  C     -0.003202   -3.368287   -0.213893
  C     -0.944912   -2.323170   -0.019125
  C     -2.314995   -2.654671    0.220392
  C     -3.264962   -1.696415    0.281526
  C     -2.935198   -0.343745   -0.035391
  C     -3.959889    0.614031   -0.195113
  C     -3.683759    1.868865   -0.669022
  C     -2.364681    2.193971   -1.029522
  C     -1.349420    1.291522   -0.841748
  C     -1.588532    0.014332   -0.285354
  C     -0.541256   -0.977401   -0.101813
  C      0.874284   -0.695700   -0.100115
  H      3.192663    3.865479    1.497189
  H      0.850171    3.358433    2.164767
  H     -0.220703    1.301977    1.442803
  H      4.481116    2.179594    0.231749
  H      4.691080   -0.023592   -0.717433
  H      3.759310   -2.285771   -1.034909
  H      1.992948   -3.860996   -0.762495
  H     -0.351399   -4.392720   -0.173452
  H     -2.568602   -3.698649    0.356628
  H     -4.298193   -1.944944    0.489240
  H     -4.977437    0.321575    0.033438
  H     -4.476929    2.592554   -0.800779
  H     -2.148413    3.158699   -1.469011
  H     -0.349707    1.557983   -1.149360

 Multiplicity           Mult            ....    1
 Number of Electrons    NEL             ....  146
 Basis Dimension        Dim             .... 1208

ORBITAL ENERGIES
----------------

  NO   OCC          E(Eh)            E(eV)
   0   2.0000     -10.564667      -287.4792
   1   2.0000     -10.564048      -287.4624
   2   2.0000     -10.559013      -287.3253
   3   2.0000     -10.558911      -287.3226
   4   2.0000     -10.556527      -287.2577
   5   2.0000     -10.556481      -287.2564
   6   2.0000     -10.554247      -287.1957
   7   2.0000     -10.554216      -287.1948
   8   2.0000     -10.544913      -286.9417
   9   2.0000     -10.544466      -286.9295
  10   2.0000     -10.544427      -286.9285
  11   2.0000     -10.543895      -286.9140
  12   2.0000     -10.543397      -286.9004
  13   2.0000     -10.543360      -286.8994
  14   2.0000     -10.542709      -286.8817
  15   2.0000     -10.542678      -286.8809
  16   2.0000     -10.541908      -286.8599
  17   2.0000     -10.541847      -286.8582
  18   2.0000     -10.541491      -286.8486
  19   2.0000     -10.541442      -286.8472
  20   2.0000     -10.540653      -286.8257
  21   2.0000     -10.540592      -286.8241
  22   2.0000      -1.006164       -27.3791
  23   2.0000      -0.982560       -26.7368
  24   2.0000      -0.958988       -26.0954
  25   2.0000      -0.928769       -25.2731
  26   2.0000      -0.902235       -24.5511
  27   2.0000      -0.889475       -24.2038
  28   2.0000      -0.862243       -23.4628
  29   2.0000      -0.847023       -23.0487
  30   2.0000      -0.834859       -22.7177
  31   2.0000      -0.816098       -22.2072
  32   2.0000      -0.807313       -21.9681
  33   2.0000      -0.728837       -19.8327
  34   2.0000      -0.724595       -19.7172
  35   2.0000      -0.699900       -19.0453
  36   2.0000      -0.695614       -18.9286
  37   2.0000      -0.694412       -18.8959
  38   2.0000      -0.659538       -17.9469
  39   2.0000      -0.631745       -17.1907
  40   2.0000      -0.607369       -16.5273
  41   2.0000      -0.603380       -16.4188
  42   2.0000      -0.574230       -15.6256
  43   2.0000      -0.572001       -15.5649
  44   2.0000      -0.564999       -15.3744
  45   2.0000      -0.536230       -14.5916
  46   2.0000      -0.532091       -14.4789
  47   2.0000      -0.521079       -14.1793
  48   2.0000      -0.503901       -13.7118
  49   2.0000      -0.499308       -13.5869
  50   2.0000      -0.498960       -13.5774
  51   2.0000      -0.490957       -13.3596
  52   2.0000      -0.485908       -13.2222
  53   2.0000      -0.483882       -13.1671
  54   2.0000      -0.472781       -12.8650
  55   2.0000      -0.468665       -12.7530
  56   2.0000      -0.461926       -12.5697
  57   2.0000      -0.448697       -12.2097
  58   2.0000      -0.435417       -11.8483
  59   2.0000      -0.427970       -11.6456
  60   2.0000      -0.423652       -11.5282
  61   2.0000      -0.406701       -11.0669
  62   2.0000      -0.402571       -10.9545
  63   2.0000      -0.400421       -10.8960
  64   2.0000      -0.382213       -10.4005
  65   2.0000      -0.378309       -10.2943
  66   2.0000      -0.364387        -9.9155
  67   2.0000      -0.352206        -9.5840
  68   2.0000      -0.338912        -9.2223
  69   2.0000      -0.309411        -8.4195
  70   2.0000      -0.285547        -7.7701
  71   2.0000      -0.263947        -7.1824
  72   2.0000      -0.258359        -7.0303
  73   0.0000      -0.033480        -0.9110
  74   0.0000      -0.031191        -0.8487
  75   0.0000      -0.005355        -0.1457
  76   0.0000       0.002277         0.0620
  77   0.0000       0.009334         0.2540

MULLIKEN ATOMIC CHARGES
-----------------------
   0 C :   -0.479871
   1 C :   -0.594506
   2 C :   -0.663508
   3 C :    1.214597
   4 C :    1.540619
   5 C :   -0.787952
   6 C :   -0.779669
   7 C :   -0.393136
   8 C :    1.682804
   9 C :   -0.575589
  10 C :   -0.563675
  11 C :    1.594547
  12 C :   -0.323967
  13 C :   -0.719856
  14 C :    1.496819
  15 C :   -0.750805
  16 C :   -0.451274
  17 C :   -0.615439
  18 C :   -0.630441
  19 C :    1.046671
  20 C :   -0.585711
  21 C :   -0.532829
  22 H :    0.124421
  23 H :    0.094465
  24 H :    0.023650
  25 H :    0.060871
  26 H :    0.049568
  27 H :    0.051673
  28 H :    0.038304
  29 H :    0.043666
  30 H :    0.050748
  31 H :    0.043092
  32 H :    0.054322
  33 H :    0.125608
  34 H :    0.097941
  35 H :    0.013843
Sum of atomic charges:   -0.0000000

LOEWDIN ATOMIC CHARGES
----------------------
   0 C :   -0.117640
   1 C :   -0.106740
   2 C :   -0.057897
   3 C :   -0.215764
   4 C :   -0.324859
   5 C :   -0.050869
   6 C :   -0.019243
   7 C :   -0.018954
   8 C :   -0.299618
   9 C :   -0.014218
  10 C :   -0.014313
  11 C :   -0.299727
  12 C :   -0.018864
  13 C :   -0.019152
  14 C :   -0.324860
  15 C :   -0.050805
  16 C :   -0.117551
  17 C :   -0.106609
  18 C :   -0.057982
  19 C :   -0.216389
  20 C :   -0.104862
  21 C :   -0.104481
  22 H :    0.169895
  23 H :    0.172299
  24 H :    0.218891
  25 H :    0.191359
  26 H :    0.191782
  27 H :    0.193278
  28 H :    0.193159
  29 H :    0.193206
  30 H :    0.193227
  31 H :    0.191771
  32 H :    0.191345
  33 H :    0.169888
  34 H :    0.172302
  35 H :    0.218995

  Mayer bond orders larger than 0.100000
B(  0-C ,  1-C ) :   1.0960 B(  0-C ,  4-C ) :  -0.1170 B(  0-C ,  5-C ) :   1.2460
B(  0-C ,  6-C ) :  -0.1613 B(  0-C , 21-C ) :   0.2174 B(  0-C , 22-H ) :   1.1020
B(  0-C , 23-H ) :  -0.1031 B(  1-C ,  2-C ) :   1.1006 B(  1-C ,  3-C ) :  -0.4623
B(  1-C ,  5-C ) :   0.1118 B(  1-C , 21-C ) :   0.2963 B(  1-C , 23-H ) :   1.1586
B(  1-C , 24-H ) :  -0.1382 B(  2-C ,  3-C ) :   0.5640 B(  2-C ,  4-C ) :  -0.3533
B(  2-C ,  5-C ) :  -0.1201 B(  2-C , 11-C ) :  -0.1235 B(  2-C , 18-C ) :   0.1439
B(  2-C , 23-H ) :  -0.1425 B(  2-C , 24-H ) :   1.4015 B(  3-C ,  4-C ) :   0.5060
B(  3-C ,  7-C ) :  -0.5815 B(  3-C ,  8-C ) :  -0.5711 B(  3-C ,  9-C ) :   0.1191
B(  3-C , 10-C ) :   0.2709 B(  3-C , 13-C ) :  -0.1028 B(  3-C , 14-C ) :  -0.1215
B(  3-C , 20-C ) :   0.4769 B(  3-C , 21-C ) :   0.8478 B(  3-C , 24-H ) :  -0.3666
B(  3-C , 25-H ) :   0.1035 B(  4-C ,  5-C ) :   0.2028 B(  4-C ,  6-C ) :   0.2824
B(  4-C ,  7-C ) :   0.3754 B(  4-C ,  9-C ) :  -0.1322 B(  4-C , 14-C ) :   0.1166
B(  4-C , 20-C ) :  -0.1203 B(  4-C , 21-C ) :  -0.1128 B(  4-C , 25-H ) :  -0.1666
B(  4-C , 26-H ) :  -0.2058 B(  5-C ,  6-C ) :  -0.1761 B(  5-C ,  7-C ) :  -0.2388
B(  5-C , 21-C ) :   0.3400 B(  5-C , 22-H ) :  -0.1235 B(  5-C , 25-H ) :   1.2253
B(  6-C ,  7-C ) :   1.2042 B(  6-C ,  9-C ) :  -0.3565 B(  6-C , 10-C ) :  -0.1517
B(  6-C , 11-C ) :  -0.1727 B(  6-C , 20-C ) :   0.6288 B(  6-C , 26-H ) :   1.2731
B(  6-C , 27-H ) :  -0.1480 B(  7-C ,  8-C ) :   0.5058 B(  7-C ,  9-C ) :  -0.4358
B(  7-C , 10-C ) :  -0.2373 B(  7-C , 26-H ) :  -0.1635 B(  7-C , 27-H ) :   1.2367
B(  8-C ,  9-C ) :   0.3887 B(  8-C , 10-C ) :   0.3085 B(  8-C , 13-C ) :  -0.1205
B(  8-C , 18-C ) :  -0.1398 B(  8-C , 19-C ) :  -0.1009 B(  8-C , 20-C ) :  -0.5046
B(  8-C , 21-C ) :  -0.5409 B(  8-C , 27-H ) :  -0.1617 B(  8-C , 28-H ) :  -0.1654
B(  9-C , 10-C ) :   1.4258 B(  9-C , 11-C ) :   0.2262 B(  9-C , 12-C ) :  -0.2896
B(  9-C , 13-C ) :  -0.1702 B(  9-C , 19-C ) :   0.3192 B(  9-C , 20-C ) :  -0.4197
B(  9-C , 28-H ) :   1.2748 B(  9-C , 29-H ) :  -0.1510 B( 10-C , 11-C ) :   0.4927
B( 10-C , 12-C ) :  -0.5411 B( 10-C , 13-C ) :  -0.3776 B( 10-C , 14-C ) :  -0.1109
B( 10-C , 21-C ) :  -0.4775 B( 10-C , 28-H ) :  -0.1363 B( 10-C , 29-H ) :   1.2583
B( 11-C , 12-C ) :   0.5952 B( 11-C , 14-C ) :  -0.1083 B( 11-C , 19-C ) :  -0.5706
B( 11-C , 20-C ) :  -0.4882 B( 11-C , 21-C ) :  -0.3979 B( 11-C , 29-H ) :  -0.1333
B( 11-C , 30-H ) :  -0.1420 B( 12-C , 13-C ) :   1.2382 B( 12-C , 14-C ) :   0.3284
B( 12-C , 15-C ) :  -0.2267 B( 12-C , 19-C ) :  -0.6372 B( 12-C , 30-H ) :   1.2318
B( 12-C , 31-H ) :  -0.1705 B( 13-C , 14-C ) :   0.3466 B( 13-C , 15-C ) :  -0.2539
B( 13-C , 16-C ) :  -0.1816 B( 13-C , 21-C ) :   0.6324 B( 13-C , 30-H ) :  -0.1508
B( 13-C , 31-H ) :   1.2743 B( 14-C , 15-C ) :   0.2573 B( 14-C , 16-C ) :  -0.1436
B( 14-C , 18-C ) :  -0.3391 B( 14-C , 19-C ) :   0.5286 B( 14-C , 21-C ) :  -0.1376
B( 14-C , 31-H ) :  -0.1906 B( 14-C , 32-H ) :  -0.1640 B( 15-C , 16-C ) :   1.2415
B( 15-C , 17-C ) :   0.1072 B( 15-C , 18-C ) :  -0.1417 B( 15-C , 19-C ) :   0.1147
B( 15-C , 20-C ) :   0.3385 B( 15-C , 32-H ) :   1.2318 B( 15-C , 33-H ) :  -0.1281
B( 16-C , 17-C ) :   1.1258 B( 16-C , 20-C ) :   0.1886 B( 16-C , 33-H ) :   1.0952
B( 16-C , 34-H ) :  -0.1002 B( 17-C , 18-C ) :   1.0709 B( 17-C , 19-C ) :  -0.4488
B( 17-C , 20-C ) :   0.3146 B( 17-C , 34-H ) :   1.1589 B( 17-C , 35-H ) :  -0.1442
B( 18-C , 19-C ) :   0.6527 B( 18-C , 34-H ) :  -0.1488 B( 18-C , 35-H ) :   1.4030
B( 19-C , 20-C ) :   0.9762 B( 19-C , 21-C ) :   0.5106 B( 19-C , 32-H ) :   0.1182
B( 19-C , 35-H ) :  -0.3546 B( 20-C , 21-C ) :   1.5252 B( 20-C , 29-H ) :   0.1287
B( 20-C , 30-H ) :   0.1448 B( 20-C , 35-H ) :   0.1205 B( 21-C , 24-H ) :   0.1185
B( 21-C , 27-H ) :   0.1396 B( 21-C , 28-H ) :   0.1283

-----------------------------------------------------------------------------
         ABSORPTION SPECTRUM VIA TRANSITION ELECTRIC DIPOLE MOMENTS
-----------------------------------------------------------------------------
State   Energy    Wavelength  fosc         T2        TX        TY        TZ
        (cm-1)      (nm)                 (au**2)    (au)      (au)      (au)
-----------------------------------------------------------------------------
   1   30794.6    324.7   0.002599581   0.02779  -0.03714   0.16162   0.01703
   2   33254.6    300.7   0.003880413   0.03842  -0.02953   0.01461  -0.19321
   3   34611.3    288.9   0.932904803   8.87351   2.88435   0.51397   0.53837
   4   36774.4    271.9   0.005929774   0.05308   0.18456   0.04956  -0.12871
   5   37746.8    264.9   0.191334298   1.66874   0.24898  -1.26007  -0.13775
   6   40171.8    248.9   0.533766647   4.37427   0.40395  -2.03966  -0.22553
   7   40847.7    244.8   0.000410675   0.00331  -0.01735   0.05448   0.00638
   8   42007.3    238.1   0.717127785   5.62015   2.30947   0.47993  -0.23698
   9   42735.4    234.0   0.101065368   0.77856   0.16962  -0.86060  -0.09568
  10   43852.4    228.0   0.000808130   0.00607  -0.02624   0.07204   0.01373

FINAL SINGLE POINT ENERGY      -846.637193898004

DIPOLE MOMENT
-------------
                                X             Y             Z
Electronic contribution:      0.63761      -3.19825      -0.34957
Nuclear contribution   :     -0.61829       3.10347       0.33698
                        -----------------------------------------
Total Dipole Moment    :      0.01933      -0.09478      -0.01259
                        -----------------------------------------
Magnitude (a.u.)       :      0.09754
Magnitude (Debye)      :      0.24794

Rotational constants in cm-1:     0.015082     0.009403     0.006236
Rotational constants in MHz :   452.143770   281.880386   186.963940

                             ****ORCA TERMINATED NORMALLY****
TOTAL RUN TIME: 0 days 6 hours 59 minutes 21 seconds 459 msec
