                         Program Version 5.0.2 -  RELEASE  -
|  1> ! pbe0 d3bj aug-cc-PVTZ RIJCOSX Opt
|  2> %maxcore 4000
|  3> %basis
|  4>  AuxJ "aug-cc-PVTZ/JK"
|  5>  AuxC "aug-cc-PVTZ/C"
|  6>  newGTO H "cc-PVTZ" end
|  7>  newAuxJGTO H "cc-PVTZ/JK" end
|  8>  newAuxCGTO H "cc-PVTZ/C" end
|  9> end
| 10> %cpcm
| 11>  SMD true
| 12>  SMDsolvent "chloroform"
| 13> end
| 14> %pal nprocs 4 end
| 15> * xyz 0 1
| 16> C          2.63170        2.93990        1.16310
| 17> C          1.32380        2.62580        1.54390
| 18> C          0.74590        1.44980        1.14140
| 19> C          1.44530        0.52960        0.33820
| 20> C          2.80920        0.79650        0.06560
| 21> C          3.36580        2.02840        0.45190
| 22> C          3.61690       -0.21340       -0.52300
| 23> C          3.12690       -1.46470       -0.69130
| 24> C          1.75930       -1.75730       -0.44100
| 25> C          1.28950       -3.08870       -0.51880
| 26> C         -0.00240       -3.37950       -0.21260
| 27> C         -0.94380       -2.34060       -0.02890
| 28> C         -2.30870       -2.64690        0.21990
| 29> C         -3.24230       -1.66890        0.29770
| 30> C         -2.90210       -0.32930       -0.03160
| 31> C         -3.89910        0.65190       -0.17360
| 32> C         -3.59490        1.90070       -0.64630
| 33> C         -2.28250        2.19220       -1.02970
| 34> C         -1.28630        1.26620       -0.85920
| 35> C         -1.55140        0.00340       -0.29700
| 36> C         -0.53090       -0.99550       -0.11270
| 37> C          0.87200       -0.71840       -0.09410
| 38> H          3.06750        3.88200        1.46180
| 39> H          0.76880        3.31200        2.16650
| 40> H         -0.25440        1.21190        1.46850
| 41> H          4.39820        2.22940        0.20270
| 42> H          4.64570        0.01930       -0.75770
| 43> H          3.76360       -2.26820       -1.03360
| 44> H          1.99210       -3.87110       -0.76710
| 45> H         -0.34570       -4.40290       -0.16360
| 46> H         -2.57920       -3.68400        0.35910
| 47> H         -4.27190       -1.89760        0.53290
| 48> H         -4.91940        0.39010        0.06890
| 49> H         -4.36680        2.64770       -0.75860
| 50> H         -2.05490        3.15160       -1.47070
| 51> H         -0.28510        1.49890       -1.18690
| 52> *
| 53>
| 54>
| 55> $new_job
| 56> ! b2plyp aug-cc-PVTZ RIJCOSX SP
| 57> %maxcore 4000
| 58> %basis
| 59>  AuxJ "aug-cc-PVTZ/JK"
| 60>  AuxC "aug-cc-PVTZ/C"
| 61>  newGTO H "cc-PVTZ" end
| 62>  newAuxJGTO H "cc-PVTZ/JK" end
| 63>  newAuxCGTO H "cc-PVTZ/C" end
| 64> end
| 65> %cpcm
| 66>  SMD true
| 67>  SMDsolvent "chloroform"
| 68> end
| 69> %pal nprocs 4 end
| 70> %tddft
| 71>  nroots 10
| 72>  maxdim 7
| 73> end
| 74> * xyzfile 0 1
| 75>
| 76>                          ****END OF INPUT****
 Total Charge           Charge          ....    0
 Multiplicity           Mult            ....    1
 Number of Electrons    NEL             ....  146
Dispersion correction           -0.051098282
FINAL SINGLE POINT ENERGY      -846.152329742931
Dispersion correction            ... done
Dispersion correction           -0.050657657
FINAL SINGLE POINT ENERGY      -846.152381077612
Dispersion correction            ... done
Dispersion correction           -0.050756969
FINAL SINGLE POINT ENERGY      -846.152883446504
Dispersion correction            ... done
FINAL SINGLE POINT ENERGY      -846.153012746679
Dispersion correction            ... done
Dispersion correction           -0.050776471
FINAL SINGLE POINT ENERGY      -846.153018512156
Dispersion correction            ... done
                    ***********************HURRAY********************
Dispersion correction           -0.050767125
FINAL SINGLE POINT ENERGY      -846.153019210042

CARTESIAN COORDINATES (ANGSTROEM)
---------------------------------
  C      2.717732    2.936052    1.186090
  C      1.394274    2.651914    1.552505
  C      0.789852    1.492818    1.135578
  C      1.469327    0.551728    0.334786
  C      2.841309    0.794971    0.066245
  C      3.428923    2.011537    0.466656
  C      3.638708   -0.225603   -0.521080
  C      3.125193   -1.464314   -0.705203
  C      1.751613   -1.738619   -0.450305
  C      1.284930   -3.074218   -0.515875
  C     -0.003511   -3.365639   -0.202198
  C     -0.944487   -2.324566   -0.009167
  C     -2.309750   -2.651218    0.228788
  C     -3.261588   -1.690260    0.281976
  C     -2.932870   -0.344256   -0.037815
  C     -3.952501    0.613996   -0.204433
  C     -3.671769    1.868693   -0.678539
  C     -2.353186    2.191689   -1.029173
  C     -1.339437    1.288096   -0.834230
  C     -1.581505    0.012784   -0.283340
  C     -0.539986   -0.975617   -0.096148
  C      0.871021   -0.694919   -0.094557
  H      3.183290    3.862077    1.501562
  H      0.845900    3.346316    2.177846
  H     -0.224049    1.289571    1.448338
  H      4.471095    2.185018    0.222254
  H      4.678909   -0.013827   -0.740924
  H      3.750709   -2.278401   -1.053792
  H      1.991233   -3.858786   -0.762120
  H     -0.349363   -4.392023   -0.157539
  H     -2.567065   -3.695361    0.366819
  H     -4.296328   -1.940115    0.487145
  H     -4.973437    0.323878    0.018135
  H     -4.465110    2.593433   -0.816654
  H     -2.131777    3.158023   -1.466460
  H     -0.335901    1.555447   -1.131071

 Multiplicity           Mult            ....    1
 Number of Electrons    NEL             ....  146
 Basis Dimension        Dim             .... 1208

ORBITAL ENERGIES
----------------

  NO   OCC          E(Eh)            E(eV)
   0   2.0000     -10.638245      -289.4814
   1   2.0000     -10.637581      -289.4633
   2   2.0000     -10.632716      -289.3309
   3   2.0000     -10.632708      -289.3307
   4   2.0000     -10.630606      -289.2735
   5   2.0000     -10.630579      -289.2728
   6   2.0000     -10.628689      -289.2213
   7   2.0000     -10.628607      -289.2191
   8   2.0000     -10.619566      -288.9731
   9   2.0000     -10.619206      -288.9633
  10   2.0000     -10.619189      -288.9628
  11   2.0000     -10.618478      -288.9435
  12   2.0000     -10.618062      -288.9322
  13   2.0000     -10.618043      -288.9317
  14   2.0000     -10.617629      -288.9204
  15   2.0000     -10.617530      -288.9177
  16   2.0000     -10.616685      -288.8947
  17   2.0000     -10.616574      -288.8917
  18   2.0000     -10.616069      -288.8779
  19   2.0000     -10.615913      -288.8737
  20   2.0000     -10.615155      -288.8531
  21   2.0000     -10.614994      -288.8487
  22   2.0000      -1.025605       -27.9081
  23   2.0000      -1.001083       -27.2409
  24   2.0000      -0.976656       -26.5762
  25   2.0000      -0.945706       -25.7340
  26   2.0000      -0.918520       -24.9942
  27   2.0000      -0.905831       -24.6489
  28   2.0000      -0.877835       -23.8871
  29   2.0000      -0.862311       -23.4647
  30   2.0000      -0.849069       -23.1043
  31   2.0000      -0.830014       -22.5858
  32   2.0000      -0.820606       -22.3298
  33   2.0000      -0.739345       -20.1186
  34   2.0000      -0.735504       -20.0141
  35   2.0000      -0.708815       -19.2878
  36   2.0000      -0.704153       -19.1610
  37   2.0000      -0.703890       -19.1538
  38   2.0000      -0.665977       -18.1222
  39   2.0000      -0.638957       -17.3869
  40   2.0000      -0.611074       -16.6282
  41   2.0000      -0.607586       -16.5333
  42   2.0000      -0.579919       -15.7804
  43   2.0000      -0.574350       -15.6289
  44   2.0000      -0.569171       -15.4879
  45   2.0000      -0.538757       -14.6603
  46   2.0000      -0.537430       -14.6242
  47   2.0000      -0.524567       -14.2742
  48   2.0000      -0.503837       -13.7101
  49   2.0000      -0.502287       -13.6679
  50   2.0000      -0.501850       -13.6560
  51   2.0000      -0.494370       -13.4525
  52   2.0000      -0.488420       -13.2906
  53   2.0000      -0.484039       -13.1714
  54   2.0000      -0.469724       -12.7818
  55   2.0000      -0.465903       -12.6779
  56   2.0000      -0.455959       -12.4073
  57   2.0000      -0.451833       -12.2950
  58   2.0000      -0.431460       -11.7406
  59   2.0000      -0.427725       -11.6390
  60   2.0000      -0.422096       -11.4858
  61   2.0000      -0.410741       -11.1768
  62   2.0000      -0.404887       -11.0175
  63   2.0000      -0.388177       -10.5628
  64   2.0000      -0.386221       -10.5096
  65   2.0000      -0.380011       -10.3406
  66   2.0000      -0.348153        -9.4737
  67   2.0000      -0.335347        -9.1253
  68   2.0000      -0.321976        -8.7614
  69   2.0000      -0.290804        -7.9132
  70   2.0000      -0.266069        -7.2401
  71   2.0000      -0.243298        -6.6205
  72   2.0000      -0.237570        -6.4646
  73   0.0000      -0.011290        -0.3072
  74   0.0000      -0.008844        -0.2406
  75   0.0000       0.015957         0.4342
  76   0.0000       0.020687         0.5629
  77   0.0000       0.025890         0.7045

MULLIKEN ATOMIC CHARGES
-----------------------
   0 C :   -0.358396
   1 C :   -0.574613
   2 C :   -0.742168
   3 C :    0.708734
   4 C :    1.289942
   5 C :   -0.620844
   6 C :   -0.675298
   7 C :   -0.267501
   8 C :    1.522230
   9 C :   -0.385354
  10 C :   -0.565665
  11 C :    1.304287
  12 C :   -0.277926
  13 C :   -0.708048
  14 C :    0.969738
  15 C :   -0.728781
  16 C :   -0.436709
  17 C :   -0.646366
  18 C :   -0.580405
  19 C :    1.008490
  20 C :   -0.680659
  21 C :   -0.822008
  22 H :    0.211912
  23 H :    0.214135
  24 H :    0.103495
  25 H :    0.159914
  26 H :    0.150817
  27 H :    0.147537
  28 H :    0.145268
  29 H :    0.161601
  30 H :    0.151293
  31 H :    0.149596
  32 H :    0.157501
  33 H :    0.233611
  34 H :    0.203015
  35 H :    0.077626
Sum of atomic charges:   -0.0000000

LOEWDIN ATOMIC CHARGES
----------------------
   0 C :   -0.120180
   1 C :   -0.108320
   2 C :   -0.058093
   3 C :   -0.213823
   4 C :   -0.323155
   5 C :   -0.051395
   6 C :   -0.019802
   7 C :   -0.019737
   8 C :   -0.298805
   9 C :   -0.015024
  10 C :   -0.014996
  11 C :   -0.298874
  12 C :   -0.019768
  13 C :   -0.019999
  14 C :   -0.323297
  15 C :   -0.051447
  16 C :   -0.120262
  17 C :   -0.108144
  18 C :   -0.057580
  19 C :   -0.212788
  20 C :   -0.102364
  21 C :   -0.102526
  22 H :    0.170440
  23 H :    0.172609
  24 H :    0.217964
  25 H :    0.191111
  26 H :    0.191691
  27 H :    0.193301
  28 H :    0.193052
  29 H :    0.192981
  30 H :    0.193202
  31 H :    0.191775
  32 H :    0.191078
  33 H :    0.170491
  34 H :    0.172595
  35 H :    0.218090

  Mayer bond orders larger than 0.100000
B(  0-C ,  1-C ) :   1.1288 B(  0-C ,  5-C ) :   1.1886 B(  0-C ,  6-C ) :  -0.1398
B(  0-C , 20-C ) :  -0.1266 B(  0-C , 21-C ) :   0.1671 B(  0-C , 22-H ) :   0.9985
B(  1-C ,  2-C ) :   1.3756 B(  1-C ,  3-C ) :  -0.1602 B(  1-C , 21-C ) :   0.2152
B(  1-C , 23-H ) :   0.9906 B(  2-C ,  3-C ) :   0.8919 B(  2-C ,  4-C ) :  -0.2624
B(  2-C ,  9-C ) :   0.1058 B(  2-C , 11-C ) :  -0.1029 B(  2-C , 18-C ) :   0.2608
B(  2-C , 20-C ) :   0.1464 B(  2-C , 24-H ) :   1.1441 B(  3-C ,  4-C ) :   0.5475
B(  3-C ,  5-C ) :   0.1015 B(  3-C ,  6-C ) :   0.2299 B(  3-C ,  7-C ) :  -0.4998
B(  3-C ,  8-C ) :  -0.5521 B(  3-C , 10-C ) :   0.3686 B(  3-C , 11-C ) :   0.2186
B(  3-C , 18-C ) :  -0.1029 B(  3-C , 19-C ) :  -0.1132 B(  3-C , 20-C ) :   0.2880
B(  3-C , 21-C ) :   0.6950 B(  4-C ,  5-C ) :   0.4878 B(  4-C ,  6-C ) :   0.3112
B(  4-C ,  7-C ) :   0.2269 B(  4-C , 11-C ) :   0.1130 B(  5-C ,  6-C ) :  -0.1105
B(  5-C ,  7-C ) :  -0.1682 B(  5-C , 21-C ) :   0.2274 B(  5-C , 25-H ) :   1.0647
B(  6-C ,  7-C ) :   1.1721 B(  6-C ,  9-C ) :  -0.4065 B(  6-C , 10-C ) :  -0.1226
B(  6-C , 11-C ) :  -0.1505 B(  6-C , 20-C ) :   0.5013 B(  6-C , 26-H ) :   1.0937
B(  7-C ,  8-C ) :   0.6964 B(  7-C ,  9-C ) :  -0.3960 B(  7-C , 10-C ) :  -0.2898
B(  7-C , 11-C ) :  -0.1267 B(  7-C , 12-C ) :   0.1371 B(  7-C , 13-C ) :  -0.1021
B(  7-C , 27-H ) :   1.1005 B(  8-C ,  9-C ) :   0.3951 B(  8-C , 12-C ) :   0.1156
B(  8-C , 14-C ) :   0.1831 B(  8-C , 18-C ) :  -0.1098 B(  8-C , 19-C ) :  -0.1454
B(  8-C , 20-C ) :  -0.3852 B(  8-C , 21-C ) :  -0.3326 B(  9-C , 10-C ) :   1.3475
B(  9-C , 12-C ) :  -0.2168 B(  9-C , 13-C ) :  -0.1330 B(  9-C , 19-C ) :   0.2142
B(  9-C , 20-C ) :  -0.3854 B(  9-C , 28-H ) :   1.1211 B( 10-C , 11-C ) :   0.5662
B( 10-C , 12-C ) :  -0.4329 B( 10-C , 13-C ) :  -0.3575 B( 10-C , 14-C ) :  -0.1088
B( 10-C , 18-C ) :   0.1213 B( 10-C , 19-C ) :   0.1310 B( 10-C , 21-C ) :  -0.1571
B( 10-C , 29-H ) :   1.0966 B( 11-C , 12-C ) :   0.5376 B( 11-C , 14-C ) :  -0.1284
B( 11-C , 17-C ) :  -0.1013 B( 11-C , 19-C ) :  -0.2864 B( 11-C , 20-C ) :  -0.2334
B( 11-C , 21-C ) :  -0.1329 B( 12-C , 13-C ) :   1.2138 B( 12-C , 15-C ) :  -0.1530
B( 12-C , 19-C ) :  -0.4206 B( 12-C , 20-C ) :   0.1162 B( 12-C , 21-C ) :  -0.1412
B( 12-C , 30-H ) :   1.0969 B( 13-C , 14-C ) :   0.3356 B( 13-C , 15-C ) :  -0.1661
B( 13-C , 20-C ) :   0.3067 B( 13-C , 21-C ) :   0.3966 B( 13-C , 31-H ) :   1.0869
B( 14-C , 15-C ) :   0.5849 B( 14-C , 17-C ) :   0.1233 B( 14-C , 18-C ) :  -0.1997
B( 14-C , 19-C ) :   0.5628 B( 14-C , 20-C ) :   0.2303 B( 14-C , 21-C ) :  -0.1145
B( 15-C , 16-C ) :   1.3002 B( 15-C , 17-C ) :   0.1272 B( 15-C , 20-C ) :   0.3779
B( 15-C , 32-H ) :   1.0713 B( 16-C , 17-C ) :   1.1749 B( 16-C , 33-H ) :   0.9556
B( 17-C , 18-C ) :   1.2323 B( 17-C , 19-C ) :  -0.3540 B( 17-C , 20-C ) :   0.1971
B( 17-C , 34-H ) :   1.0195 B( 18-C , 19-C ) :   0.9410 B( 18-C , 35-H ) :   1.1658
B( 19-C , 20-C ) :   0.4532 B( 19-C , 21-C ) :   0.4994 B( 20-C , 21-C ) :   1.3443
B( 20-C , 30-H ) :   0.1095 B( 21-C , 27-H ) :   0.1191 B( 21-C , 28-H ) :   0.1062

MP2 TOTAL ENERGY:     -846.391523087 Eh

-----------------------------------------------------------------------------
         ABSORPTION SPECTRUM VIA TRANSITION ELECTRIC DIPOLE MOMENTS
-----------------------------------------------------------------------------
State   Energy    Wavelength  fosc         T2        TX        TY        TZ
        (cm-1)      (nm)                 (au**2)    (au)      (au)      (au)
-----------------------------------------------------------------------------
   1   27965.6    357.6   0.002596565   0.03057   0.03240  -0.17056  -0.02062
   2   31309.8    319.4   0.006500057   0.06835  -0.19998  -0.05384   0.15955
   3   32051.9    312.0   0.886574861   9.10620  -2.91881  -0.52054  -0.56196
   4   33630.6    297.3   0.004297490   0.04207  -0.15465  -0.04758   0.12605
   5   34290.2    291.6   0.106181636   1.01942  -0.19726   0.98381   0.11235
   6   36791.0    271.8   0.612097146   5.47715   0.44926  -2.28290  -0.25235
   7   35847.0    279.0   0.002283079   0.02097  -0.02815   0.14120   0.01542
   8   38239.2    261.5   0.675576293   5.81623   2.35055   0.48915  -0.22774
   9   41015.9    243.8   0.017796779   0.14284   0.08164  -0.36656  -0.04261
  10   40031.3    249.8   0.035579950   0.29260   0.09630  -0.52902  -0.05887

Dispersion correction           -0.045644384
FINAL SINGLE POINT ENERGY      -845.162272764978

DIPOLE MOMENT
-------------
                                X             Y             Z
Electronic contribution:      0.64093      -3.22544      -0.33421
Nuclear contribution   :     -0.61508       3.11167       0.31536
                        -----------------------------------------
Total Dipole Moment    :      0.02585      -0.11377      -0.01885
                        -----------------------------------------
Magnitude (a.u.)       :      0.11818
Magnitude (Debye)      :      0.30040

Rotational constants in cm-1:     0.015109     0.009439     0.006264
Rotational constants in MHz :   452.970608   282.976108   187.779565

                             ****ORCA TERMINATED NORMALLY****
TOTAL RUN TIME: 0 days 8 hours 38 minutes 25 seconds 228 msec
