                         Program Version 5.0.2 -  RELEASE  -
|  1> ! pbe0 d3bj aug-cc-PVTZ RIJCOSX Opt
|  2> %maxcore 4000
|  3> %basis
|  4>  AuxJ "aug-cc-PVTZ/JK"
|  5>  AuxC "aug-cc-PVTZ/C"
|  6>  newGTO H "cc-PVTZ" end
|  7>  newAuxJGTO H "cc-PVTZ/JK" end
|  8>  newAuxCGTO H "cc-PVTZ/C" end
|  9> end
| 10> %cpcm
| 11>  SMD true
| 12>  SMDsolvent "chloroform"
| 13> end
| 14> %pal nprocs 4 end
| 15> * xyz 0 1
| 16> C          2.63170        2.93990        1.16310
| 17> C          1.32380        2.62580        1.54390
| 18> C          0.74590        1.44980        1.14140
| 19> C          1.44530        0.52960        0.33820
| 20> C          2.80920        0.79650        0.06560
| 21> C          3.36580        2.02840        0.45190
| 22> C          3.61690       -0.21340       -0.52300
| 23> C          3.12690       -1.46470       -0.69130
| 24> C          1.75930       -1.75730       -0.44100
| 25> C          1.28950       -3.08870       -0.51880
| 26> C         -0.00240       -3.37950       -0.21260
| 27> C         -0.94380       -2.34060       -0.02890
| 28> C         -2.30870       -2.64690        0.21990
| 29> C         -3.24230       -1.66890        0.29770
| 30> C         -2.90210       -0.32930       -0.03160
| 31> C         -3.89910        0.65190       -0.17360
| 32> C         -3.59490        1.90070       -0.64630
| 33> C         -2.28250        2.19220       -1.02970
| 34> C         -1.28630        1.26620       -0.85920
| 35> C         -1.55140        0.00340       -0.29700
| 36> C         -0.53090       -0.99550       -0.11270
| 37> C          0.87200       -0.71840       -0.09410
| 38> H          3.06750        3.88200        1.46180
| 39> H          0.76880        3.31200        2.16650
| 40> H         -0.25440        1.21190        1.46850
| 41> H          4.39820        2.22940        0.20270
| 42> H          4.64570        0.01930       -0.75770
| 43> H          3.76360       -2.26820       -1.03360
| 44> H          1.99210       -3.87110       -0.76710
| 45> H         -0.34570       -4.40290       -0.16360
| 46> H         -2.57920       -3.68400        0.35910
| 47> H         -4.27190       -1.89760        0.53290
| 48> H         -4.91940        0.39010        0.06890
| 49> H         -4.36680        2.64770       -0.75860
| 50> H         -2.05490        3.15160       -1.47070
| 51> H         -0.28510        1.49890       -1.18690
| 52> *
| 53>
| 54>
| 55> $new_job
| 56> ! b2gp-plyp aug-cc-PVTZ RIJCOSX SP
| 57> %maxcore 4000
| 58> %basis
| 59>  AuxJ "aug-cc-PVTZ/JK"
| 60>  AuxC "aug-cc-PVTZ/C"
| 61>  newGTO H "cc-PVTZ" end
| 62>  newAuxJGTO H "cc-PVTZ/JK" end
| 63>  newAuxCGTO H "cc-PVTZ/C" end
| 64> end
| 65> %cpcm
| 66>  SMD true
| 67>  SMDsolvent "chloroform"
| 68> end
| 69> %pal nprocs 4 end
| 70> %tddft
| 71>  nroots 10
| 72>  maxdim 7
| 73> end
| 74> * xyzfile 0 1
| 75>
| 76>                          ****END OF INPUT****
 Total Charge           Charge          ....    0
 Multiplicity           Mult            ....    1
 Number of Electrons    NEL             ....  146
Dispersion correction           -0.051098282
FINAL SINGLE POINT ENERGY      -846.152329764014
Dispersion correction            ... done
Dispersion correction           -0.050657782
FINAL SINGLE POINT ENERGY      -846.152381397696
Dispersion correction            ... done
Dispersion correction           -0.050757092
FINAL SINGLE POINT ENERGY      -846.152883603380
Dispersion correction            ... done
FINAL SINGLE POINT ENERGY      -846.153013023057
Dispersion correction            ... done
Dispersion correction           -0.050776427
FINAL SINGLE POINT ENERGY      -846.153018247172
Dispersion correction            ... done
                    ***********************HURRAY********************
Dispersion correction           -0.050767510
FINAL SINGLE POINT ENERGY      -846.153019249337

CARTESIAN COORDINATES (ANGSTROEM)
---------------------------------
  C      2.717581    2.935983    1.186278
  C      1.394135    2.651768    1.552680
  C      0.789755    1.492686    1.135655
  C      1.469284    0.551696    0.334795
  C      2.841247    0.795018    0.066238
  C      3.428810    2.011575    0.466743
  C      3.638666   -0.225505   -0.521136
  C      3.125195   -1.464231   -0.705299
  C      1.751624   -1.738604   -0.450404
  C      1.284899   -3.074186   -0.516087
  C     -0.003534   -3.365638   -0.202354
  C     -0.944485   -2.324581   -0.009123
  C     -2.309739   -2.651147    0.229040
  C     -3.261516   -1.690122    0.282363
  C     -2.932790   -0.344152   -0.037581
  C     -3.952387    0.614119   -0.204316
  C     -3.671630    1.868691   -0.678754
  C     -2.353056    2.191568   -1.029533
  C     -1.339331    1.287983   -0.834449
  C     -1.581438    0.012775   -0.283340
  C     -0.539959   -0.975645   -0.096108
  C      0.871031   -0.694944   -0.094593
  H      3.183100    3.861999    1.501843
  H      0.845757    3.346098    2.178099
  H     -0.224133    1.289344    1.448398
  H      4.470977    2.185123    0.222375
  H      4.678861   -0.013686   -0.740971
  H      3.750746   -2.278281   -1.053912
  H      1.991173   -3.858747   -0.762436
  H     -0.349373   -4.392028   -0.157745
  H     -2.567102   -3.695269    0.367133
  H     -4.296241   -1.939912    0.487686
  H     -4.973326    0.324098    0.018361
  H     -4.464946    2.593441   -0.816978
  H     -2.131650    3.157802   -1.467045
  H     -0.335802    1.555211   -1.131421

 Multiplicity           Mult            ....    1
 Number of Electrons    NEL             ....  146
 Basis Dimension        Dim             .... 1208

ORBITAL ENERGIES
----------------

  NO   OCC          E(Eh)            E(eV)
   0   2.0000     -10.798849      -293.8516
   1   2.0000     -10.798108      -293.8315
   2   2.0000     -10.793029      -293.6932
   3   2.0000     -10.793021      -293.6930
   4   2.0000     -10.790908      -293.6355
   5   2.0000     -10.790882      -293.6348
   6   2.0000     -10.788939      -293.5820
   7   2.0000     -10.788850      -293.5795
   8   2.0000     -10.779875      -293.3353
   9   2.0000     -10.779501      -293.3251
  10   2.0000     -10.779484      -293.3247
  11   2.0000     -10.778678      -293.3027
  12   2.0000     -10.778250      -293.2911
  13   2.0000     -10.778231      -293.2906
  14   2.0000     -10.777812      -293.2792
  15   2.0000     -10.777705      -293.2763
  16   2.0000     -10.776791      -293.2514
  17   2.0000     -10.776672      -293.2482
  18   2.0000     -10.776205      -293.2354
  19   2.0000     -10.776036      -293.2308
  20   2.0000     -10.775189      -293.2078
  21   2.0000     -10.775027      -293.2034
  22   2.0000      -1.074013       -29.2254
  23   2.0000      -1.048649       -28.5352
  24   2.0000      -1.023349       -27.8467
  25   2.0000      -0.991342       -26.9758
  26   2.0000      -0.963250       -26.2114
  27   2.0000      -0.950109       -25.8538
  28   2.0000      -0.921271       -25.0691
  29   2.0000      -0.905094       -24.6289
  30   2.0000      -0.891381       -24.2557
  31   2.0000      -0.871635       -23.7184
  32   2.0000      -0.861931       -23.4543
  33   2.0000      -0.776463       -21.1286
  34   2.0000      -0.772641       -21.0246
  35   2.0000      -0.744751       -20.2657
  36   2.0000      -0.740221       -20.1424
  37   2.0000      -0.739443       -20.1213
  38   2.0000      -0.700136       -19.0517
  39   2.0000      -0.672412       -18.2972
  40   2.0000      -0.642695       -17.4886
  41   2.0000      -0.638533       -17.3754
  42   2.0000      -0.610196       -16.6043
  43   2.0000      -0.604229       -16.4419
  44   2.0000      -0.599422       -16.3111
  45   2.0000      -0.567567       -15.4443
  46   2.0000      -0.566596       -15.4179
  47   2.0000      -0.553366       -15.0579
  48   2.0000      -0.531673       -14.4675
  49   2.0000      -0.529715       -14.4143
  50   2.0000      -0.529307       -14.4032
  51   2.0000      -0.521637       -14.1945
  52   2.0000      -0.515578       -14.0296
  53   2.0000      -0.511063       -13.9067
  54   2.0000      -0.494889       -13.4666
  55   2.0000      -0.492723       -13.4077
  56   2.0000      -0.479551       -13.0492
  57   2.0000      -0.478107       -13.0099
  58   2.0000      -0.456737       -12.4285
  59   2.0000      -0.453050       -12.3281
  60   2.0000      -0.444564       -12.0972
  61   2.0000      -0.435616       -11.8537
  62   2.0000      -0.429091       -11.6762
  63   2.0000      -0.409967       -11.1558
  64   2.0000      -0.409817       -11.1517
  65   2.0000      -0.402115       -10.9421
  66   2.0000      -0.366349        -9.9689
  67   2.0000      -0.352395        -9.5891
  68   2.0000      -0.338231        -9.2037
  69   2.0000      -0.304592        -8.2884
  70   2.0000      -0.279474        -7.6049
  71   2.0000      -0.255185        -6.9439
  72   2.0000      -0.249152        -6.7798
  73   0.0000       0.004023         0.1095
  74   0.0000       0.006776         0.1844
  75   0.0000       0.024457         0.6655
  76   0.0000       0.031646         0.8611
  77   0.0000       0.032540         0.8855

MULLIKEN ATOMIC CHARGES
-----------------------
   0 C :   -0.350143
   1 C :   -0.574189
   2 C :   -0.759081
   3 C :    0.688840
   4 C :    1.308467
   5 C :   -0.615669
   6 C :   -0.692494
   7 C :   -0.277150
   8 C :    1.583413
   9 C :   -0.342620
  10 C :   -0.563206
  11 C :    1.312662
  12 C :   -0.266646
  13 C :   -0.719184
  14 C :    0.934451
  15 C :   -0.746631
  16 C :   -0.441602
  17 C :   -0.652301
  18 C :   -0.571676
  19 C :    1.012947
  20 C :   -0.769926
  21 C :   -0.919767
  22 H :    0.217968
  23 H :    0.224007
  24 H :    0.122428
  25 H :    0.171386
  26 H :    0.160706
  27 H :    0.157402
  28 H :    0.156074
  29 H :    0.174790
  30 H :    0.161785
  31 H :    0.160280
  32 H :    0.168325
  33 H :    0.243983
  34 H :    0.210659
  35 H :    0.091713
Sum of atomic charges:   -0.0000000

LOEWDIN ATOMIC CHARGES
----------------------
   0 C :   -0.120274
   1 C :   -0.108401
   2 C :   -0.058334
   3 C :   -0.214303
   4 C :   -0.323886
   5 C :   -0.051273
   6 C :   -0.019715
   7 C :   -0.019631
   8 C :   -0.299413
   9 C :   -0.014753
  10 C :   -0.014745
  11 C :   -0.299502
  12 C :   -0.019653
  13 C :   -0.019911
  14 C :   -0.324047
  15 C :   -0.051323
  16 C :   -0.120361
  17 C :   -0.108213
  18 C :   -0.057834
  19 C :   -0.213294
  20 C :   -0.102508
  21 C :   -0.102666
  22 H :    0.170766
  23 H :    0.172896
  24 H :    0.218103
  25 H :    0.191350
  26 H :    0.191988
  27 H :    0.193577
  28 H :    0.193331
  29 H :    0.193259
  30 H :    0.193473
  31 H :    0.192080
  32 H :    0.191309
  33 H :    0.170824
  34 H :    0.172866
  35 H :    0.218217

  Mayer bond orders larger than 0.100000
B(  0-C ,  1-C ) :   1.1121 B(  0-C ,  5-C ) :   1.1667 B(  0-C ,  6-C ) :  -0.1417
B(  0-C , 20-C ) :  -0.1319 B(  0-C , 21-C ) :   0.1586 B(  0-C , 22-H ) :   1.0116
B(  1-C ,  2-C ) :   1.3584 B(  1-C ,  3-C ) :  -0.1554 B(  1-C , 21-C ) :   0.2295
B(  1-C , 23-H ) :   0.9963 B(  2-C ,  3-C ) :   0.8812 B(  2-C ,  4-C ) :  -0.2722
B(  2-C ,  9-C ) :   0.1145 B(  2-C , 11-C ) :  -0.1033 B(  2-C , 12-C ) :   0.1019
B(  2-C , 13-C ) :  -0.1129 B(  2-C , 18-C ) :   0.3201 B(  2-C , 19-C ) :  -0.1080
B(  2-C , 20-C ) :   0.1827 B(  2-C , 24-H ) :   1.1460 B(  3-C ,  4-C ) :   0.5600
B(  3-C ,  6-C ) :   0.2326 B(  3-C ,  7-C ) :  -0.5111 B(  3-C ,  8-C ) :  -0.5492
B(  3-C , 10-C ) :   0.3825 B(  3-C , 11-C ) :   0.2387 B(  3-C , 18-C ) :  -0.1375
B(  3-C , 19-C ) :  -0.1021 B(  3-C , 20-C ) :   0.2683 B(  3-C , 21-C ) :   0.7808
B(  4-C ,  5-C ) :   0.5087 B(  4-C ,  6-C ) :   0.3159 B(  4-C ,  7-C ) :   0.2442
B(  4-C , 11-C ) :   0.1378 B(  4-C , 14-C ) :   0.1104 B(  4-C , 15-C ) :  -0.1087
B(  4-C , 19-C ) :  -0.1024 B(  4-C , 21-C ) :  -0.1148 B(  5-C ,  6-C ) :  -0.1151
B(  5-C ,  7-C ) :  -0.1646 B(  5-C , 21-C ) :   0.2327 B(  5-C , 25-H ) :   1.0626
B(  6-C ,  7-C ) :   1.1924 B(  6-C ,  9-C ) :  -0.4216 B(  6-C , 10-C ) :  -0.1329
B(  6-C , 11-C ) :  -0.1778 B(  6-C , 20-C ) :   0.5290 B(  6-C , 21-C ) :   0.1634
B(  6-C , 26-H ) :   1.0964 B(  7-C ,  8-C ) :   0.7006 B(  7-C ,  9-C ) :  -0.4276
B(  7-C , 10-C ) :  -0.3026 B(  7-C , 11-C ) :  -0.1571 B(  7-C , 12-C ) :   0.1411
B(  7-C , 13-C ) :  -0.1224 B(  7-C , 18-C ) :   0.1007 B(  7-C , 27-H ) :   1.1035
B(  8-C ,  9-C ) :   0.4094 B(  8-C , 12-C ) :   0.1149 B(  8-C , 14-C ) :   0.2171
B(  8-C , 18-C ) :  -0.1152 B(  8-C , 19-C ) :  -0.1946 B(  8-C , 20-C ) :  -0.4316
B(  8-C , 21-C ) :  -0.3750 B(  9-C , 10-C ) :   1.3433 B(  9-C , 12-C ) :  -0.2234
B(  9-C , 13-C ) :  -0.1394 B(  9-C , 19-C ) :   0.2103 B(  9-C , 20-C ) :  -0.4314
B(  9-C , 28-H ) :   1.1228 B( 10-C , 11-C ) :   0.5988 B( 10-C , 12-C ) :  -0.5032
B( 10-C , 13-C ) :  -0.3748 B( 10-C , 14-C ) :  -0.1288 B( 10-C , 18-C ) :   0.1369
B( 10-C , 19-C ) :   0.1654 B( 10-C , 20-C ) :   0.1092 B( 10-C , 21-C ) :  -0.1593
B( 10-C , 29-H ) :   1.0943 B( 11-C , 12-C ) :   0.5288 B( 11-C , 14-C ) :  -0.1388
B( 11-C , 17-C ) :  -0.1025 B( 11-C , 19-C ) :  -0.2513 B( 11-C , 20-C ) :  -0.2456
B( 11-C , 21-C ) :  -0.1207 B( 12-C , 13-C ) :   1.2342 B( 12-C , 15-C ) :  -0.1594
B( 12-C , 19-C ) :  -0.4354 B( 12-C , 20-C ) :   0.1325 B( 12-C , 21-C ) :  -0.1285
B( 12-C , 30-H ) :   1.0994 B( 13-C , 14-C ) :   0.3355 B( 13-C , 15-C ) :  -0.1926
B( 13-C , 20-C ) :   0.3705 B( 13-C , 21-C ) :   0.4196 B( 13-C , 31-H ) :   1.0882
B( 14-C , 15-C ) :   0.6255 B( 14-C , 16-C ) :   0.1233 B( 14-C , 17-C ) :   0.1583
B( 14-C , 18-C ) :  -0.1921 B( 14-C , 19-C ) :   0.5607 B( 14-C , 20-C ) :   0.2472
B( 14-C , 21-C ) :  -0.1274 B( 15-C , 16-C ) :   1.3065 B( 15-C , 17-C ) :   0.1281
B( 15-C , 20-C ) :   0.4054 B( 15-C , 32-H ) :   1.0707 B( 16-C , 17-C ) :   1.1582
B( 16-C , 33-H ) :   0.9602 B( 17-C , 18-C ) :   1.1951 B( 17-C , 19-C ) :  -0.3745
B( 17-C , 20-C ) :   0.2061 B( 17-C , 34-H ) :   1.0294 B( 18-C , 19-C ) :   0.9244
B( 18-C , 34-H ) :  -0.1088 B( 18-C , 35-H ) :   1.1702 B( 19-C , 20-C ) :   0.4942
B( 19-C , 21-C ) :   0.5211 B( 20-C , 21-C ) :   1.4406 B( 20-C , 29-H ) :   0.1050
B( 20-C , 30-H ) :   0.1158 B( 21-C , 27-H ) :   0.1248 B( 21-C , 28-H ) :   0.1081

MP2 TOTAL ENERGY:     -846.226082340 Eh

-----------------------------------------------------------------------------
         ABSORPTION SPECTRUM VIA TRANSITION ELECTRIC DIPOLE MOMENTS
-----------------------------------------------------------------------------
State   Energy    Wavelength  fosc         T2        TX        TY        TZ
        (cm-1)      (nm)                 (au**2)    (au)      (au)      (au)
-----------------------------------------------------------------------------
   1   28770.7    347.6   0.002763105   0.03162  -0.03303   0.17343   0.02115
   2   32329.2    309.3   0.008519935   0.08676   0.24427   0.06203  -0.15246
   3   32962.4    303.4   0.955600986   9.54406   2.98833   0.53315   0.57421
   4   34552.5    289.4   0.003101280   0.02955  -0.10435  -0.03612   0.13174
   5   35874.7    278.7   0.062503974   0.57358   0.14877  -0.73773  -0.08491
   6   37431.8    267.2   0.827471626   7.27759  -0.51921   2.63118   0.29140
   7   40418.1    247.4   0.009613229   0.07830   0.03447  -0.27625  -0.02826
   8   40057.9    249.6   0.633970696   5.21023  -2.21981  -0.46175   0.26352
   9   39690.8    251.9   0.006519510   0.05408  -0.05165   0.22503   0.02776
  10   40528.4    246.7   0.040429786   0.32841  -0.08717   0.56313   0.06081

Dispersion correction           -0.034629503
FINAL SINGLE POINT ENERGY      -844.680524564037

DIPOLE MOMENT
-------------
                                X             Y             Z
Electronic contribution:      0.64141      -3.22674      -0.33430
Nuclear contribution   :     -0.61518       3.11159       0.31514
                        -----------------------------------------
Total Dipole Moment    :      0.02623      -0.11515      -0.01917
                        -----------------------------------------
Magnitude (a.u.)       :      0.11965
Magnitude (Debye)      :      0.30412

Rotational constants in cm-1:     0.015109     0.009439     0.006264
Rotational constants in MHz :   452.966964   282.983470   187.789317

                             ****ORCA TERMINATED NORMALLY****
TOTAL RUN TIME: 0 days 7 hours 14 minutes 41 seconds 766 msec
