                         Program Version 5.0.2 -  RELEASE  -
|  1> ! pbe0 aug-cc-PVTZ RIJCOSX Opt
|  2> %maxcore 4000
|  3> %basis
|  4>  AuxJ "aug-cc-PVTZ/JK"
|  5>  AuxC "aug-cc-PVTZ/C"
|  6>  newGTO H "cc-PVTZ" end
|  7>  newAuxJGTO H "cc-PVTZ/JK" end
|  8>  newAuxCGTO H "cc-PVTZ/C" end
|  9> end
| 10> %cpcm
| 11>  SMD true
| 12>  SMDsolvent "chloroform"
| 13> end
| 14> %pal nprocs 4 end
| 15> * xyz 0 1
| 16> C          2.63170        2.93990        1.16310
| 17> C          1.32380        2.62580        1.54390
| 18> C          0.74590        1.44980        1.14140
| 19> C          1.44530        0.52960        0.33820
| 20> C          2.80920        0.79650        0.06560
| 21> C          3.36580        2.02840        0.45190
| 22> C          3.61690       -0.21340       -0.52300
| 23> C          3.12690       -1.46470       -0.69130
| 24> C          1.75930       -1.75730       -0.44100
| 25> C          1.28950       -3.08870       -0.51880
| 26> C         -0.00240       -3.37950       -0.21260
| 27> C         -0.94380       -2.34060       -0.02890
| 28> C         -2.30870       -2.64690        0.21990
| 29> C         -3.24230       -1.66890        0.29770
| 30> C         -2.90210       -0.32930       -0.03160
| 31> C         -3.89910        0.65190       -0.17360
| 32> C         -3.59490        1.90070       -0.64630
| 33> C         -2.28250        2.19220       -1.02970
| 34> C         -1.28630        1.26620       -0.85920
| 35> C         -1.55140        0.00340       -0.29700
| 36> C         -0.53090       -0.99550       -0.11270
| 37> C          0.87200       -0.71840       -0.09410
| 38> H          3.06750        3.88200        1.46180
| 39> H          0.76880        3.31200        2.16650
| 40> H         -0.25440        1.21190        1.46850
| 41> H          4.39820        2.22940        0.20270
| 42> H          4.64570        0.01930       -0.75770
| 43> H          3.76360       -2.26820       -1.03360
| 44> H          1.99210       -3.87110       -0.76710
| 45> H         -0.34570       -4.40290       -0.16360
| 46> H         -2.57920       -3.68400        0.35910
| 47> H         -4.27190       -1.89760        0.53290
| 48> H         -4.91940        0.39010        0.06890
| 49> H         -4.36680        2.64770       -0.75860
| 50> H         -2.05490        3.15160       -1.47070
| 51> H         -0.28510        1.49890       -1.18690
| 52> *
| 53>
| 54>
| 55> $new_job
| 56> ! pbe0 aug-cc-PVTZ RIJCOSX SP
| 57> %maxcore 4000
| 58> %basis
| 59>  AuxJ "aug-cc-PVTZ/JK"
| 60>  AuxC "aug-cc-PVTZ/C"
| 61>  newGTO H "cc-PVTZ" end
| 62>  newAuxJGTO H "cc-PVTZ/JK" end
| 63>  newAuxCGTO H "cc-PVTZ/C" end
| 64> end
| 65> %cpcm
| 66>  SMD true
| 67>  SMDsolvent "chloroform"
| 68> end
| 69> %pal nprocs 4 end
| 70> %tddft
| 71>  nroots 10
| 72>  maxdim 7
| 73> end
| 74> * xyzfile 0 1
| 75>
| 76>                          ****END OF INPUT****
 Total Charge           Charge          ....    0
 Multiplicity           Mult            ....    1
 Number of Electrons    NEL             ....  146
FINAL SINGLE POINT ENERGY      -846.101231481819
FINAL SINGLE POINT ENERGY      -846.101024968018
FINAL SINGLE POINT ENERGY      -846.102217265111
FINAL SINGLE POINT ENERGY      -846.102287008127
FINAL SINGLE POINT ENERGY      -846.102292156779
                    ***********************HURRAY********************
FINAL SINGLE POINT ENERGY      -846.102292866639

CARTESIAN COORDINATES (ANGSTROEM)
---------------------------------
  C      2.744864    2.932592    1.198150
  C      1.418376    2.657809    1.560144
  C      0.804545    1.505296    1.136611
  C      1.476832    0.558588    0.335123
  C      2.851662    0.794323    0.069033
  C      3.448452    2.005074    0.474907
  C      3.644475   -0.228277   -0.521533
  C      3.124464   -1.463668   -0.708257
  C      1.749741   -1.732917   -0.451332
  C      1.283379   -3.068886   -0.516167
  C     -0.004123   -3.360416   -0.199851
  C     -0.945014   -2.319074   -0.006331
  C     -2.309454   -2.651233    0.231601
  C     -3.266193   -1.695232    0.280744
  C     -2.942520   -0.348363   -0.041549
  C     -3.968515    0.602314   -0.215637
  C     -3.695785    1.857791   -0.692723
  C     -2.377584    2.189653   -1.035848
  C     -1.357528    1.294131   -0.832191
  C     -1.591151    0.016100   -0.282116
  C     -0.542912   -0.968410   -0.094184
  C      0.870748   -0.686995   -0.094167
  H      3.218035    3.853137    1.518927
  H      0.874373    3.354272    2.187403
  H     -0.212031    1.311451    1.447487
  H      4.492367    2.171277    0.231964
  H      4.685880   -0.021345   -0.741325
  H      3.745961   -2.280021   -1.059375
  H      1.989454   -3.853572   -0.763577
  H     -0.349677   -4.387070   -0.154207
  H     -2.562135   -3.696469    0.371502
  H     -4.300299   -1.950036    0.484092
  H     -4.988460    0.305175    0.003203
  H     -4.494205    2.575822   -0.837853
  H     -2.160799    3.156784   -1.474247
  H     -0.354823    1.570695   -1.124322

 Multiplicity           Mult            ....    1
 Number of Electrons    NEL             ....  146
 Basis Dimension        Dim             .... 1208

ORBITAL ENERGIES
----------------

  NO   OCC          E(Eh)            E(eV)
   0   2.0000     -10.251387      -278.9544
   1   2.0000     -10.250920      -278.9417
   2   2.0000     -10.245981      -278.8073
   3   2.0000     -10.245957      -278.8067
   4   2.0000     -10.243244      -278.7328
   5   2.0000     -10.243215      -278.7320
   6   2.0000     -10.241207      -278.6774
   7   2.0000     -10.241129      -278.6753
   8   2.0000     -10.230532      -278.3869
   9   2.0000     -10.230171      -278.3771
  10   2.0000     -10.230149      -278.3765
  11   2.0000     -10.229710      -278.3645
  12   2.0000     -10.229283      -278.3529
  13   2.0000     -10.229258      -278.3523
  14   2.0000     -10.228741      -278.3382
  15   2.0000     -10.228654      -278.3358
  16   2.0000     -10.227941      -278.3164
  17   2.0000     -10.227818      -278.3131
  18   2.0000     -10.227592      -278.3069
  19   2.0000     -10.227431      -278.3025
  20   2.0000     -10.226906      -278.2883
  21   2.0000     -10.226758      -278.2842
  22   2.0000      -0.925890       -25.1948
  23   2.0000      -0.903353       -24.5815
  24   2.0000      -0.880711       -23.9654
  25   2.0000      -0.851968       -23.1832
  26   2.0000      -0.826425       -22.4882
  27   2.0000      -0.814497       -22.1636
  28   2.0000      -0.788420       -21.4540
  29   2.0000      -0.774303       -21.0698
  30   2.0000      -0.761696       -20.7268
  31   2.0000      -0.744322       -20.2540
  32   2.0000      -0.735426       -20.0119
  33   2.0000      -0.663821       -18.0635
  34   2.0000      -0.659746       -17.9526
  35   2.0000      -0.635423       -17.2908
  36   2.0000      -0.631213       -17.1762
  37   2.0000      -0.630267       -17.1504
  38   2.0000      -0.596270       -16.2253
  39   2.0000      -0.570292       -15.5184
  40   2.0000      -0.548582       -14.9277
  41   2.0000      -0.543534       -14.7903
  42   2.0000      -0.518777       -14.1166
  43   2.0000      -0.513619       -13.9763
  44   2.0000      -0.507256       -13.8031
  45   2.0000      -0.479744       -13.0545
  46   2.0000      -0.477854       -13.0031
  47   2.0000      -0.465388       -12.6638
  48   2.0000      -0.447763       -12.1843
  49   2.0000      -0.446847       -12.1593
  50   2.0000      -0.444446       -12.0940
  51   2.0000      -0.438587       -11.9345
  52   2.0000      -0.432381       -11.7657
  53   2.0000      -0.429805       -11.6956
  54   2.0000      -0.419446       -11.4137
  55   2.0000      -0.412279       -11.2187
  56   2.0000      -0.409846       -11.1525
  57   2.0000      -0.397214       -10.8088
  58   2.0000      -0.381970       -10.3939
  59   2.0000      -0.378492       -10.2993
  60   2.0000      -0.375179       -10.2091
  61   2.0000      -0.359479        -9.7819
  62   2.0000      -0.354391        -9.6435
  63   2.0000      -0.350171        -9.5286
  64   2.0000      -0.337114        -9.1733
  65   2.0000      -0.332913        -9.0590
  66   2.0000      -0.316882        -8.6228
  67   2.0000      -0.306720        -8.3463
  68   2.0000      -0.294666        -8.0183
  69   2.0000      -0.269637        -7.3372
  70   2.0000      -0.246037        -6.6950
  71   2.0000      -0.226914        -6.1746
  72   2.0000      -0.221706        -6.0329
  73   0.0000      -0.057525        -1.5653
  74   0.0000      -0.055632        -1.5138
  75   0.0000      -0.029983        -0.8159
  76   0.0000      -0.009218        -0.2508
  77   0.0000       0.003748         0.1020

MULLIKEN ATOMIC CHARGES
-----------------------
   0 C :   -0.348520
   1 C :   -0.545129
   2 C :   -0.686388
   3 C :    0.537335
   4 C :    0.925980
   5 C :   -0.574795
   6 C :   -0.537515
   7 C :   -0.281225
   8 C :    1.170249
   9 C :   -0.390280
  10 C :   -0.482289
  11 C :    1.063564
  12 C :   -0.277214
  13 C :   -0.577005
  14 C :    0.780396
  15 C :   -0.634816
  16 C :   -0.388413
  17 C :   -0.586287
  18 C :   -0.606411
  19 C :    0.680769
  20 C :   -0.432849
  21 C :   -0.506682
  22 H :    0.241907
  23 H :    0.238660
  24 H :    0.159536
  25 H :    0.184492
  26 H :    0.178661
  27 H :    0.172620
  28 H :    0.173247
  29 H :    0.181697
  30 H :    0.175479
  31 H :    0.177626
  32 H :    0.182748
  33 H :    0.251336
  34 H :    0.233852
  35 H :    0.145659
Sum of atomic charges:   -0.0000000

LOEWDIN ATOMIC CHARGES
----------------------
   0 C :   -0.120589
   1 C :   -0.109867
   2 C :   -0.058205
   3 C :   -0.214489
   4 C :   -0.325373
   5 C :   -0.052732
   6 C :   -0.020979
   7 C :   -0.021192
   8 C :   -0.301263
   9 C :   -0.016661
  10 C :   -0.016577
  11 C :   -0.301288
  12 C :   -0.021235
  13 C :   -0.021176
  14 C :   -0.325388
  15 C :   -0.052752
  16 C :   -0.120629
  17 C :   -0.109716
  18 C :   -0.057643
  19 C :   -0.213372
  20 C :   -0.102043
  21 C :   -0.102221
  22 H :    0.171990
  23 H :    0.174253
  24 H :    0.219514
  25 H :    0.193024
  26 H :    0.193520
  27 H :    0.195300
  28 H :    0.195062
  29 H :    0.194994
  30 H :    0.195206
  31 H :    0.193567
  32 H :    0.192993
  33 H :    0.172008
  34 H :    0.174281
  35 H :    0.219679

  Mayer bond orders larger than 0.100000
B(  0-C ,  1-C ) :   1.2412 B(  0-C ,  5-C ) :   1.3142 B(  0-C ,  6-C ) :  -0.1053
B(  0-C , 21-C ) :   0.1289 B(  0-C , 22-H ) :   0.9064 B(  1-C ,  2-C ) :   1.5135
B(  1-C ,  3-C ) :  -0.1667 B(  1-C , 21-C ) :   0.1609 B(  1-C , 23-H ) :   0.9096
B(  2-C ,  3-C ) :   1.0923 B(  2-C ,  4-C ) :  -0.2051 B(  2-C ,  8-C ) :   0.1058
B(  2-C , 21-C ) :  -0.1457 B(  2-C , 24-H ) :   1.0011 B(  3-C ,  4-C ) :   0.7621
B(  3-C ,  6-C ) :   0.1934 B(  3-C ,  7-C ) :  -0.4091 B(  3-C ,  8-C ) :  -0.4538
B(  3-C , 10-C ) :   0.2597 B(  3-C , 11-C ) :   0.1604 B(  3-C , 19-C ) :  -0.1162
B(  3-C , 20-C ) :   0.2257 B(  3-C , 21-C ) :   0.5972 B(  4-C ,  5-C ) :   0.6928
B(  4-C ,  6-C ) :   0.5803 B(  5-C ,  6-C ) :  -0.1620 B(  5-C ,  7-C ) :  -0.1217
B(  5-C , 21-C ) :   0.2000 B(  5-C , 25-H ) :   0.9839 B(  6-C ,  7-C ) :   1.2173
B(  6-C ,  9-C ) :  -0.2776 B(  6-C , 20-C ) :   0.3403 B(  6-C , 26-H ) :   0.9939
B(  7-C ,  8-C ) :   0.7739 B(  7-C ,  9-C ) :  -0.2860 B(  7-C , 10-C ) :  -0.2069
B(  7-C , 12-C ) :   0.1169 B(  7-C , 21-C ) :   0.1164 B(  7-C , 27-H ) :   1.0193
B(  8-C ,  9-C ) :   0.6532 B(  8-C , 20-C ) :  -0.3112 B(  8-C , 21-C ) :   0.1178
B(  9-C , 10-C ) :   1.3776 B(  9-C , 12-C ) :  -0.1896 B(  9-C , 19-C ) :   0.1946
B(  9-C , 20-C ) :  -0.2686 B(  9-C , 28-H ) :   1.0259 B( 10-C , 11-C ) :   0.7450
B( 10-C , 12-C ) :  -0.3138 B( 10-C , 13-C ) :  -0.2523 B( 10-C , 21-C ) :  -0.1621
B( 10-C , 29-H ) :   1.0150 B( 11-C , 12-C ) :   0.7117 B( 11-C , 14-C ) :  -0.1260
B( 11-C , 19-C ) :  -0.3634 B( 11-C , 20-C ) :   0.1497 B( 11-C , 21-C ) :  -0.1893
B( 12-C , 13-C ) :   1.2435 B( 12-C , 15-C ) :  -0.1162 B( 12-C , 19-C ) :  -0.3680
B( 12-C , 20-C ) :   0.1345 B( 12-C , 21-C ) :  -0.1337 B( 12-C , 30-H ) :   1.0159
B( 13-C , 14-C ) :   0.5772 B( 13-C , 15-C ) :  -0.1763 B( 13-C , 19-C ) :   0.1477
B( 13-C , 20-C ) :   0.1195 B( 13-C , 21-C ) :   0.2904 B( 13-C , 31-H ) :   0.9929
B( 14-C , 15-C ) :   0.7015 B( 14-C , 18-C ) :  -0.1773 B( 14-C , 19-C ) :   0.7970
B( 15-C , 16-C ) :   1.3598 B( 15-C , 17-C ) :   0.1073 B( 15-C , 20-C ) :   0.2608
B( 15-C , 32-H ) :   0.9940 B( 16-C , 17-C ) :   1.2666 B( 16-C , 33-H ) :   0.8895
B( 17-C , 18-C ) :   1.4523 B( 17-C , 19-C ) :  -0.2528 B( 17-C , 20-C ) :   0.1457
B( 17-C , 34-H ) :   0.9219 B( 18-C , 19-C ) :   1.1176 B( 18-C , 20-C ) :  -0.1464
B( 18-C , 35-H ) :   1.0146 B( 19-C , 20-C ) :   0.5316 B( 19-C , 21-C ) :   0.3370
B( 20-C , 21-C ) :   1.1956

-----------------------------------------------------------------------------
         ABSORPTION SPECTRUM VIA TRANSITION ELECTRIC DIPOLE MOMENTS
-----------------------------------------------------------------------------
State   Energy    Wavelength  fosc         T2        TX        TY        TZ
        (cm-1)      (nm)                 (au**2)    (au)      (au)      (au)
-----------------------------------------------------------------------------
   1   28153.7    355.2   0.002844781   0.03327  -0.03464   0.17784   0.02089
   2   30344.1    329.6   0.008638529   0.09372   0.27138   0.06522  -0.12578
   3   31896.5    313.5   0.701316357   7.23846   2.59775   0.45996   0.52784
   4   33885.7    295.1   0.026115222   0.25372   0.47152   0.16306  -0.06926
   5   33968.7    294.4   0.156586865   1.51758  -0.26054   1.19589   0.13980
   6   35244.6    283.7   0.001975246   0.01845   0.03051  -0.13158  -0.01438
   7   36836.4    271.5   0.239883039   2.14387   0.27697  -1.42915  -0.15707
   8   37895.8    263.9   0.610229228   5.30125   2.25842   0.44739  -0.02509
   9   39061.8    256.0   0.016825718   0.14181   0.35559   0.09072  -0.08445
  10   39502.6    253.1   0.056106530   0.46759   0.13280  -0.66654  -0.07536

FINAL SINGLE POINT ENERGY      -845.974015361134

DIPOLE MOMENT
-------------
                                X             Y             Z
Electronic contribution:      0.63023      -3.17813      -0.32749
Nuclear contribution   :     -0.60702       3.07502       0.30972
                        -----------------------------------------
Total Dipole Moment    :      0.02321      -0.10311      -0.01777
                        -----------------------------------------
Magnitude (a.u.)       :      0.10718
Magnitude (Debye)      :      0.27242

Rotational constants in cm-1:     0.015130     0.009356     0.006234
Rotational constants in MHz :   453.582021   280.493590   186.890302

                             ****ORCA TERMINATED NORMALLY****
TOTAL RUN TIME: 0 days 3 hours 27 minutes 25 seconds 614 msec
