                         Program Version 5.0.2 -  RELEASE  -
|  1> ! wb97x-d3 aug-cc-PVTZ RIJCOSX Opt
|  2> %maxcore 4000
|  3> %basis
|  4>  AuxJ "aug-cc-PVTZ/JK"
|  5>  AuxC "aug-cc-PVTZ/C"
|  6>  newGTO H "cc-PVTZ" end
|  7>  newAuxJGTO H "cc-PVTZ/JK" end
|  8>  newAuxCGTO H "cc-PVTZ/C" end
|  9> end
| 10> %cpcm
| 11>  SMD true
| 12>  SMDsolvent "chloroform"
| 13> end
| 14> %pal nprocs 4 end
| 15> * xyz 0 1
| 16> C          2.63170        2.93990        1.16310
| 17> C          1.32380        2.62580        1.54390
| 18> C          0.74590        1.44980        1.14140
| 19> C          1.44530        0.52960        0.33820
| 20> C          2.80920        0.79650        0.06560
| 21> C          3.36580        2.02840        0.45190
| 22> C          3.61690       -0.21340       -0.52300
| 23> C          3.12690       -1.46470       -0.69130
| 24> C          1.75930       -1.75730       -0.44100
| 25> C          1.28950       -3.08870       -0.51880
| 26> C         -0.00240       -3.37950       -0.21260
| 27> C         -0.94380       -2.34060       -0.02890
| 28> C         -2.30870       -2.64690        0.21990
| 29> C         -3.24230       -1.66890        0.29770
| 30> C         -2.90210       -0.32930       -0.03160
| 31> C         -3.89910        0.65190       -0.17360
| 32> C         -3.59490        1.90070       -0.64630
| 33> C         -2.28250        2.19220       -1.02970
| 34> C         -1.28630        1.26620       -0.85920
| 35> C         -1.55140        0.00340       -0.29700
| 36> C         -0.53090       -0.99550       -0.11270
| 37> C          0.87200       -0.71840       -0.09410
| 38> H          3.06750        3.88200        1.46180
| 39> H          0.76880        3.31200        2.16650
| 40> H         -0.25440        1.21190        1.46850
| 41> H          4.39820        2.22940        0.20270
| 42> H          4.64570        0.01930       -0.75770
| 43> H          3.76360       -2.26820       -1.03360
| 44> H          1.99210       -3.87110       -0.76710
| 45> H         -0.34570       -4.40290       -0.16360
| 46> H         -2.57920       -3.68400        0.35910
| 47> H         -4.27190       -1.89760        0.53290
| 48> H         -4.91940        0.39010        0.06890
| 49> H         -4.36680        2.64770       -0.75860
| 50> H         -2.05490        3.15160       -1.47070
| 51> H         -0.28510        1.49890       -1.18690
| 52> *
| 53>
| 54>
| 55> $new_job
| 56> ! wb97x-d3 aug-cc-PVTZ RIJCOSX SP
| 57> %maxcore 4000
| 58> %basis
| 59>  AuxJ "aug-cc-PVTZ/JK"
| 60>  AuxC "aug-cc-PVTZ/C"
| 61>  newGTO H "cc-PVTZ" end
| 62>  newAuxJGTO H "cc-PVTZ/JK" end
| 63>  newAuxCGTO H "cc-PVTZ/C" end
| 64> end
| 65> %cpcm
| 66>  SMD true
| 67>  SMDsolvent "chloroform"
| 68> end
| 69> %pal nprocs 4 end
| 70> %tddft
| 71>  nroots 10
| 72>  maxdim 7
| 73> end
| 74> * xyzfile 0 1
| 75>
| 76>                          ****END OF INPUT****
 Total Charge           Charge          ....    0
 Multiplicity           Mult            ....    1
 Number of Electrons    NEL             ....  146
Dispersion correction           -0.016941304
FINAL SINGLE POINT ENERGY      -846.854618864286
Dispersion correction            ... done
Dispersion correction           -0.016724264
FINAL SINGLE POINT ENERGY      -846.853761012069
Dispersion correction            ... done
Dispersion correction           -0.016721545
FINAL SINGLE POINT ENERGY      -846.855856259468
Dispersion correction            ... done
Dispersion correction           -0.016734395
FINAL SINGLE POINT ENERGY      -846.855960082349
Dispersion correction            ... done
Dispersion correction           -0.016726791
FINAL SINGLE POINT ENERGY      -846.855960246490
Dispersion correction            ... done
                    ***********************HURRAY********************
Dispersion correction           -0.016721084
FINAL SINGLE POINT ENERGY      -846.855957904413

CARTESIAN COORDINATES (ANGSTROEM)
---------------------------------
  C      2.728752    2.923455    1.221589
  C      1.401004    2.641271    1.578800
  C      0.794898    1.491962    1.145476
  C      1.475533    0.556953    0.333967
  C      2.841265    0.799482    0.068380
  C      3.435189    2.008051    0.490049
  C      3.638444   -0.220176   -0.537208
  C      3.125296   -1.452159   -0.730257
  C      1.747303   -1.730028   -0.466150
  C      1.280935   -3.069989   -0.528335
  C      0.000249   -3.362275   -0.197644
  C     -0.942164   -2.318315    0.002779
  C     -2.311712   -2.644399    0.258547
  C     -3.259933   -1.686590    0.307887
  C     -2.933177   -0.338027   -0.033666
  C     -3.956618    0.616435   -0.214738
  C     -3.679693    1.860936   -0.710789
  C     -2.360424    2.181834   -1.066025
  C     -1.347451    1.283990   -0.858459
  C     -1.589322    0.014367   -0.287961
  C     -0.542182   -0.977448   -0.094786
  C      0.873709   -0.693843   -0.103969
  H      3.197659    3.840403    1.554876
  H      0.852509    3.328769    2.209963
  H     -0.219366    1.288852    1.454929
  H      4.477356    2.182940    0.250226
  H      4.676695   -0.007194   -0.760892
  H      3.748236   -2.260909   -1.092950
  H      1.985066   -3.853559   -0.780161
  H     -0.342959   -4.388481   -0.149446
  H     -2.566498   -3.685401    0.416859
  H     -4.291702   -1.934261    0.525735
  H     -4.976151    0.331412    0.016718
  H     -4.473310    2.581439   -0.861718
  H     -2.141305    3.141551   -1.516472
  H     -0.345731    1.549250   -1.161055

 Multiplicity           Mult            ....    1
 Number of Electrons    NEL             ....  146
 Basis Dimension        Dim             .... 1208

ORBITAL ENERGIES
----------------

  NO   OCC          E(Eh)            E(eV)
   0   2.0000     -10.303370      -280.3690
   1   2.0000     -10.302948      -280.3575
   2   2.0000     -10.298338      -280.2320
   3   2.0000     -10.298245      -280.2295
   4   2.0000     -10.295717      -280.1607
   5   2.0000     -10.295607      -280.1577
   6   2.0000     -10.293702      -280.1059
   7   2.0000     -10.293630      -280.1039
   8   2.0000     -10.283502      -279.8283
   9   2.0000     -10.283145      -279.8186
  10   2.0000     -10.283102      -279.8174
  11   2.0000     -10.282708      -279.8067
  12   2.0000     -10.282256      -279.7944
  13   2.0000     -10.282228      -279.7936
  14   2.0000     -10.281446      -279.7724
  15   2.0000     -10.281346      -279.7696
  16   2.0000     -10.280618      -279.7498
  17   2.0000     -10.280480      -279.7461
  18   2.0000     -10.280322      -279.7418
  19   2.0000     -10.280205      -279.7386
  20   2.0000     -10.279513      -279.7198
  21   2.0000     -10.279382      -279.7162
  22   2.0000      -1.019097       -27.7310
  23   2.0000      -0.996307       -27.1109
  24   2.0000      -0.973825       -26.4991
  25   2.0000      -0.944782       -25.7088
  26   2.0000      -0.919101       -25.0100
  27   2.0000      -0.906849       -24.6766
  28   2.0000      -0.880445       -23.9581
  29   2.0000      -0.866283       -23.5728
  30   2.0000      -0.854247       -23.2452
  31   2.0000      -0.836767       -22.7696
  32   2.0000      -0.828134       -22.5347
  33   2.0000      -0.753327       -20.4991
  34   2.0000      -0.748876       -20.3780
  35   2.0000      -0.726093       -19.7580
  36   2.0000      -0.721254       -19.6263
  37   2.0000      -0.719787       -19.5864
  38   2.0000      -0.686691       -18.6858
  39   2.0000      -0.658989       -17.9320
  40   2.0000      -0.637004       -17.3338
  41   2.0000      -0.631522       -17.1846
  42   2.0000      -0.604987       -16.4625
  43   2.0000      -0.601825       -16.3765
  44   2.0000      -0.594023       -16.1642
  45   2.0000      -0.566184       -15.4066
  46   2.0000      -0.563278       -15.3276
  47   2.0000      -0.550936       -14.9917
  48   2.0000      -0.535836       -14.5808
  49   2.0000      -0.531117       -14.4524
  50   2.0000      -0.530044       -14.4232
  51   2.0000      -0.522629       -14.2215
  52   2.0000      -0.516713       -14.0605
  53   2.0000      -0.515505       -14.0276
  54   2.0000      -0.504782       -13.7358
  55   2.0000      -0.501337       -13.6421
  56   2.0000      -0.493727       -13.4350
  57   2.0000      -0.480602       -13.0778
  58   2.0000      -0.468520       -12.7491
  59   2.0000      -0.460072       -12.5192
  60   2.0000      -0.456277       -12.4159
  61   2.0000      -0.440357       -11.9827
  62   2.0000      -0.435414       -11.8482
  63   2.0000      -0.433655       -11.8003
  64   2.0000      -0.416238       -11.3264
  65   2.0000      -0.411843       -11.2068
  66   2.0000      -0.397008       -10.8031
  67   2.0000      -0.383650       -10.4396
  68   2.0000      -0.370843       -10.0912
  69   2.0000      -0.339410        -9.2358
  70   2.0000      -0.315557        -8.5867
  71   2.0000      -0.292482        -7.9589
  72   2.0000      -0.286682        -7.8010
  73   0.0000       0.007990         0.2174
  74   0.0000       0.010036         0.2731
  75   0.0000       0.037204         1.0124
  76   0.0000       0.046031         1.2526
  77   0.0000       0.051605         1.4042

MULLIKEN ATOMIC CHARGES
-----------------------
   0 C :   -0.340453
   1 C :   -0.562215
   2 C :   -0.775299
   3 C :    0.379565
   4 C :    1.109231
   5 C :   -0.676332
   6 C :   -0.447735
   7 C :   -0.105341
   8 C :    1.425088
   9 C :   -0.346749
  10 C :   -0.412179
  11 C :    1.389595
  12 C :   -0.150181
  13 C :   -0.481119
  14 C :    0.982776
  15 C :   -0.676939
  16 C :   -0.388141
  17 C :   -0.602443
  18 C :   -0.709033
  19 C :    0.497484
  20 C :   -0.802453
  21 C :   -0.866570
  22 H :    0.242847
  23 H :    0.225778
  24 H :    0.161423
  25 H :    0.174690
  26 H :    0.163814
  27 H :    0.161784
  28 H :    0.152270
  29 H :    0.162310
  30 H :    0.162374
  31 H :    0.163048
  32 H :    0.171314
  33 H :    0.245922
  34 H :    0.223890
  35 H :    0.147982
Sum of atomic charges:   -0.0000000

LOEWDIN ATOMIC CHARGES
----------------------
   0 C :   -0.118639
   1 C :   -0.108106
   2 C :   -0.057241
   3 C :   -0.215679
   4 C :   -0.323190
   5 C :   -0.051413
   6 C :   -0.019735
   7 C :   -0.019653
   8 C :   -0.298655
   9 C :   -0.014673
  10 C :   -0.014253
  11 C :   -0.298151
  12 C :   -0.019331
  13 C :   -0.019852
  14 C :   -0.323207
  15 C :   -0.051343
  16 C :   -0.118857
  17 C :   -0.108221
  18 C :   -0.057050
  19 C :   -0.215788
  20 C :   -0.105464
  21 C :   -0.104918
  22 H :    0.170639
  23 H :    0.172825
  24 H :    0.218805
  25 H :    0.191475
  26 H :    0.191696
  27 H :    0.193296
  28 H :    0.193181
  29 H :    0.193006
  30 H :    0.193075
  31 H :    0.191688
  32 H :    0.191435
  33 H :    0.170691
  34 H :    0.172906
  35 H :    0.218704

  Mayer bond orders larger than 0.100000
B(  0-C ,  1-C ) :   1.1704 B(  0-C ,  2-C ) :   0.1025 B(  0-C ,  3-C ) :   0.1670
B(  0-C ,  4-C ) :  -0.1256 B(  0-C ,  5-C ) :   1.2140 B(  0-C ,  6-C ) :  -0.1491
B(  0-C , 21-C ) :   0.1666 B(  0-C , 22-H ) :   0.9409 B(  1-C ,  2-C ) :   1.4402
B(  1-C ,  3-C ) :  -0.2339 B(  1-C ,  5-C ) :   0.1047 B(  1-C ,  8-C ) :  -0.1145
B(  1-C , 21-C ) :   0.2100 B(  1-C , 23-H ) :   0.9720 B(  2-C ,  3-C ) :   0.9857
B(  2-C ,  4-C ) :  -0.2317 B(  2-C ,  5-C ) :  -0.1139 B(  2-C , 24-H ) :   1.1035
B(  3-C ,  4-C ) :   0.9121 B(  3-C ,  5-C ) :   0.3243 B(  3-C ,  6-C ) :   0.2467
B(  3-C ,  7-C ) :  -0.6720 B(  3-C ,  8-C ) :  -0.6751 B(  3-C , 10-C ) :   0.3233
B(  3-C , 20-C ) :   0.4073 B(  3-C , 21-C ) :   1.1469 B(  4-C ,  5-C ) :   0.1976
B(  4-C ,  6-C ) :   0.2391 B(  4-C ,  7-C ) :   0.2112 B(  4-C , 20-C ) :  -0.1370
B(  5-C ,  6-C ) :  -0.1669 B(  5-C ,  7-C ) :  -0.2075 B(  5-C , 21-C ) :   0.2696
B(  5-C , 25-H ) :   1.0656 B(  6-C ,  7-C ) :   1.0264 B(  6-C ,  9-C ) :  -0.3519
B(  6-C , 20-C ) :   0.4221 B(  6-C , 26-H ) :   1.0942 B(  6-C , 27-H ) :  -0.1056
B(  7-C ,  8-C ) :   0.6863 B(  7-C ,  9-C ) :  -0.3326 B(  7-C , 10-C ) :  -0.2272
B(  7-C , 12-C ) :   0.1789 B(  7-C , 19-C ) :  -0.1380 B(  7-C , 20-C ) :  -0.1505
B(  7-C , 27-H ) :   1.1086 B(  8-C ,  9-C ) :   0.4608 B(  8-C , 14-C ) :   0.1761
B(  8-C , 18-C ) :  -0.1225 B(  8-C , 19-C ) :  -0.1929 B(  8-C , 20-C ) :  -0.5474
B(  8-C , 21-C ) :  -0.2014 B(  9-C , 10-C ) :   1.2560 B(  9-C , 12-C ) :  -0.2641
B(  9-C , 19-C ) :   0.2409 B(  9-C , 20-C ) :  -0.3428 B(  9-C , 28-H ) :   1.1316
B( 10-C , 11-C ) :   0.5187 B( 10-C , 12-C ) :  -0.3331 B( 10-C , 13-C ) :  -0.2858
B( 10-C , 21-C ) :  -0.2977 B( 10-C , 29-H ) :   1.1182 B( 11-C , 12-C ) :   0.5738
B( 11-C , 17-C ) :  -0.1208 B( 11-C , 19-C ) :  -0.5757 B( 11-C , 20-C ) :  -0.1813
B( 11-C , 21-C ) :  -0.4094 B( 12-C , 13-C ) :   1.1044 B( 12-C , 14-C ) :   0.1392
B( 12-C , 15-C ) :  -0.1703 B( 12-C , 19-C ) :  -0.6174 B( 12-C , 20-C ) :   0.1300
B( 12-C , 21-C ) :  -0.1874 B( 12-C , 30-H ) :   1.1174 B( 13-C , 14-C ) :   0.1943
B( 13-C , 15-C ) :  -0.1853 B( 13-C , 16-C ) :  -0.1417 B( 13-C , 19-C ) :   0.2153
B( 13-C , 21-C ) :   0.4057 B( 13-C , 31-H ) :   1.0883 B( 14-C , 15-C ) :   0.2671
B( 14-C , 18-C ) :  -0.2153 B( 14-C , 19-C ) :   0.9478 B( 14-C , 21-C ) :  -0.2050
B( 15-C , 16-C ) :   1.2171 B( 15-C , 17-C ) :   0.1247 B( 15-C , 18-C ) :  -0.1004
B( 15-C , 19-C ) :   0.3077 B( 15-C , 20-C ) :   0.3633 B( 15-C , 32-H ) :   1.0723
B( 16-C , 17-C ) :   1.1944 B( 16-C , 19-C ) :   0.1546 B( 16-C , 20-C ) :   0.1447
B( 16-C , 33-H ) :   0.9421 B( 17-C , 18-C ) :   1.3776 B( 17-C , 19-C ) :  -0.3355
B( 17-C , 20-C ) :   0.2047 B( 17-C , 34-H ) :   0.9855 B( 18-C , 19-C ) :   1.0151
B( 18-C , 20-C ) :  -0.1252 B( 18-C , 35-H ) :   1.1198 B( 19-C , 20-C ) :   1.0076
B( 19-C , 21-C ) :   0.5044 B( 19-C , 35-H ) :  -0.1040 B( 20-C , 21-C ) :   1.9970
B( 20-C , 29-H ) :   0.1070 B( 20-C , 30-H ) :   0.1392 B( 21-C , 27-H ) :   0.1296
B( 21-C , 28-H ) :   0.1194

-----------------------------------------------------------------------------
         ABSORPTION SPECTRUM VIA TRANSITION ELECTRIC DIPOLE MOMENTS
-----------------------------------------------------------------------------
State   Energy    Wavelength  fosc         T2        TX        TY        TZ
        (cm-1)      (nm)                 (au**2)    (au)      (au)      (au)
-----------------------------------------------------------------------------
   1   31806.7    314.4   0.002260642   0.02340  -0.03650   0.14766   0.01624
   2   34144.3    292.9   0.003702705   0.03570   0.05929   0.02505  -0.17765
   3   36031.7    277.5   1.038430494   9.48786  -2.98227  -0.53153  -0.55803
   4   37649.0    265.6   0.002248912   0.01967  -0.01810  -0.01974   0.13765
   5   39345.3    254.2   0.122931762   1.02860  -0.20268   0.98790   0.10756
   6   41660.4    240.0   0.846474470   6.68908  -0.49168   2.52399   0.27714
   7   43559.3    229.6   0.105700704   0.79886   0.16275  -0.87364  -0.09551
   8   44221.8    226.1   0.774768924   5.76782   2.31949   0.49159  -0.38226
   9   44570.6    224.4   0.049585482   0.36625   0.12307  -0.58853  -0.06884
  10   47251.3    211.6   0.028066165   0.19554   0.33981   0.10221  -0.26387

Dispersion correction           -0.016721084
FINAL SINGLE POINT ENERGY      -846.711035522832

DIPOLE MOMENT
-------------
                                X             Y             Z
Electronic contribution:      0.63416      -3.18410      -0.34707
Nuclear contribution   :     -0.61159       3.08189       0.33441
                        -----------------------------------------
Total Dipole Moment    :      0.02257      -0.10221      -0.01266
                        -----------------------------------------
Magnitude (a.u.)       :      0.10544
Magnitude (Debye)      :      0.26800

Rotational constants in cm-1:     0.015100     0.009384     0.006267
Rotational constants in MHz :   452.672981   281.317419   187.882014

                             ****ORCA TERMINATED NORMALLY****
TOTAL RUN TIME: 0 days 5 hours 17 minutes 27 seconds 502 msec
