                         Program Version 5.0.2 -  RELEASE  -
|  1> ! x3lyp aug-cc-PVTZ RIJCOSX Opt
|  2> %maxcore 4000
|  3> %basis
|  4>  AuxJ "aug-cc-PVTZ/JK"
|  5>  AuxC "aug-cc-PVTZ/C"
|  6>  newGTO H "cc-PVTZ" end
|  7>  newAuxJGTO H "cc-PVTZ/JK" end
|  8>  newAuxCGTO H "cc-PVTZ/C" end
|  9> end
| 10> %cpcm
| 11>  SMD true
| 12>  SMDsolvent "chloroform"
| 13> end
| 14> %pal nprocs 4 end
| 15> * xyz 0 1
| 16> C          2.63170        2.93990        1.16310
| 17> C          1.32380        2.62580        1.54390
| 18> C          0.74590        1.44980        1.14140
| 19> C          1.44530        0.52960        0.33820
| 20> C          2.80920        0.79650        0.06560
| 21> C          3.36580        2.02840        0.45190
| 22> C          3.61690       -0.21340       -0.52300
| 23> C          3.12690       -1.46470       -0.69130
| 24> C          1.75930       -1.75730       -0.44100
| 25> C          1.28950       -3.08870       -0.51880
| 26> C         -0.00240       -3.37950       -0.21260
| 27> C         -0.94380       -2.34060       -0.02890
| 28> C         -2.30870       -2.64690        0.21990
| 29> C         -3.24230       -1.66890        0.29770
| 30> C         -2.90210       -0.32930       -0.03160
| 31> C         -3.89910        0.65190       -0.17360
| 32> C         -3.59490        1.90070       -0.64630
| 33> C         -2.28250        2.19220       -1.02970
| 34> C         -1.28630        1.26620       -0.85920
| 35> C         -1.55140        0.00340       -0.29700
| 36> C         -0.53090       -0.99550       -0.11270
| 37> C          0.87200       -0.71840       -0.09410
| 38> H          3.06750        3.88200        1.46180
| 39> H          0.76880        3.31200        2.16650
| 40> H         -0.25440        1.21190        1.46850
| 41> H          4.39820        2.22940        0.20270
| 42> H          4.64570        0.01930       -0.75770
| 43> H          3.76360       -2.26820       -1.03360
| 44> H          1.99210       -3.87110       -0.76710
| 45> H         -0.34570       -4.40290       -0.16360
| 46> H         -2.57920       -3.68400        0.35910
| 47> H         -4.27190       -1.89760        0.53290
| 48> H         -4.91940        0.39010        0.06890
| 49> H         -4.36680        2.64770       -0.75860
| 50> H         -2.05490        3.15160       -1.47070
| 51> H         -0.28510        1.49890       -1.18690
| 52> *
| 53>
| 54>
| 55> $new_job
| 56> ! x3lyp aug-cc-PVTZ RIJCOSX SP
| 57> %maxcore 4000
| 58> %basis
| 59>  AuxJ "aug-cc-PVTZ/JK"
| 60>  AuxC "aug-cc-PVTZ/C"
| 61>  newGTO H "cc-PVTZ" end
| 62>  newAuxJGTO H "cc-PVTZ/JK" end
| 63>  newAuxCGTO H "cc-PVTZ/C" end
| 64> end
| 65> %cpcm
| 66>  SMD true
| 67>  SMDsolvent "chloroform"
| 68> end
| 69> %pal nprocs 4 end
| 70> %tddft
| 71>  nroots 10
| 72>  maxdim 7
| 73> end
| 74> * xyzfile 0 1
| 75>
| 76>                          ****END OF INPUT****
 Total Charge           Charge          ....    0
 Multiplicity           Mult            ....    1
 Number of Electrons    NEL             ....  146
FINAL SINGLE POINT ENERGY      -846.342146481205
FINAL SINGLE POINT ENERGY      -846.341694086513
FINAL SINGLE POINT ENERGY      -846.344108731948
FINAL SINGLE POINT ENERGY      -846.344208239915
FINAL SINGLE POINT ENERGY      -846.344220370186
FINAL SINGLE POINT ENERGY      -846.344221530197
                    ***********************HURRAY********************
FINAL SINGLE POINT ENERGY      -846.344222130905

CARTESIAN COORDINATES (ANGSTROEM)
---------------------------------
  C      2.764265    2.937453    1.207442
  C      1.435403    2.665108    1.571746
  C      0.816841    1.512624    1.147619
  C      1.484815    0.561708    0.341940
  C      2.864602    0.795712    0.073503
  C      3.465151    2.007722    0.480453
  C      3.655427   -0.231038   -0.519394
  C      3.132123   -1.466288   -0.709041
  C      1.754344   -1.735524   -0.451692
  C      1.285295   -3.073548   -0.516697
  C     -0.004387   -3.365181   -0.202517
  C     -0.948117   -2.322854   -0.007660
  C     -2.315059   -2.656174    0.232543
  C     -3.274739   -1.700868    0.279637
  C     -2.954859   -0.350673   -0.045167
  C     -3.985105    0.599737   -0.219878
  C     -3.716344    1.856750   -0.701161
  C     -2.397266    2.192077   -1.047345
  C     -1.372536    1.298472   -0.843254
  C     -1.599875    0.017652   -0.288795
  C     -0.545685   -0.967610   -0.096853
  C      0.873517   -0.685730   -0.092484
  H      3.239166    3.855278    1.527682
  H      0.894963    3.361714    2.198979
  H     -0.197834    1.324770    1.459666
  H      4.507172    2.172710    0.236558
  H      4.695590   -0.027375   -0.739414
  H      3.752015   -2.281036   -1.061199
  H      1.989144   -3.858044   -0.763217
  H     -0.348207   -4.390562   -0.157885
  H     -2.566651   -3.699524    0.374623
  H     -4.306167   -1.958101    0.484093
  H     -5.002592    0.301919    0.000580
  H     -4.515500    2.571397   -0.846181
  H     -2.184280    3.157743   -1.486612
  H     -0.374231    1.579881   -1.136519

 Multiplicity           Mult            ....    1
 Number of Electrons    NEL             ....  146
 Basis Dimension        Dim             .... 1208

ORBITAL ENERGIES
----------------

  NO   OCC          E(Eh)            E(eV)
   0   2.0000     -10.218584      -278.0618
   1   2.0000     -10.218147      -278.0499
   2   2.0000     -10.213306      -277.9182
   3   2.0000     -10.213294      -277.9179
   4   2.0000     -10.210412      -277.8394
   5   2.0000     -10.210379      -277.8385
   6   2.0000     -10.208619      -277.7907
   7   2.0000     -10.208565      -277.7892
   8   2.0000     -10.198114      -277.5048
   9   2.0000     -10.197816      -277.4967
  10   2.0000     -10.197798      -277.4962
  11   2.0000     -10.197323      -277.4833
  12   2.0000     -10.196948      -277.4731
  13   2.0000     -10.196926      -277.4725
  14   2.0000     -10.196629      -277.4644
  15   2.0000     -10.196562      -277.4626
  16   2.0000     -10.195825      -277.4425
  17   2.0000     -10.195733      -277.4400
  18   2.0000     -10.195363      -277.4299
  19   2.0000     -10.195244      -277.4267
  20   2.0000     -10.194724      -277.4125
  21   2.0000     -10.194597      -277.4091
  22   2.0000      -0.900483       -24.5034
  23   2.0000      -0.878987       -23.9184
  24   2.0000      -0.857055       -23.3216
  25   2.0000      -0.829250       -22.5650
  26   2.0000      -0.804349       -21.8874
  27   2.0000      -0.792396       -21.5622
  28   2.0000      -0.767603       -20.8875
  29   2.0000      -0.753696       -20.5091
  30   2.0000      -0.741681       -20.1822
  31   2.0000      -0.724631       -19.7182
  32   2.0000      -0.716239       -19.4899
  33   2.0000      -0.645736       -17.5714
  34   2.0000      -0.641889       -17.4667
  35   2.0000      -0.617780       -16.8106
  36   2.0000      -0.614100       -16.7105
  37   2.0000      -0.613682       -16.6991
  38   2.0000      -0.580476       -15.7956
  39   2.0000      -0.555381       -15.1127
  40   2.0000      -0.533064       -14.5054
  41   2.0000      -0.529113       -14.3979
  42   2.0000      -0.504144       -13.7184
  43   2.0000      -0.500000       -13.6057
  44   2.0000      -0.494215       -13.4483
  45   2.0000      -0.467499       -12.7213
  46   2.0000      -0.465054       -12.6548
  47   2.0000      -0.453559       -12.3420
  48   2.0000      -0.434834       -11.8324
  49   2.0000      -0.434810       -11.8318
  50   2.0000      -0.433092       -11.7850
  51   2.0000      -0.427049       -11.6206
  52   2.0000      -0.421480       -11.4690
  53   2.0000      -0.417649       -11.3648
  54   2.0000      -0.406986       -11.0747
  55   2.0000      -0.400059       -10.8862
  56   2.0000      -0.396974       -10.8022
  57   2.0000      -0.387588       -10.5468
  58   2.0000      -0.370077       -10.0703
  59   2.0000      -0.366725        -9.9791
  60   2.0000      -0.365843        -9.9551
  61   2.0000      -0.350613        -9.5407
  62   2.0000      -0.345395        -9.3987
  63   2.0000      -0.337125        -9.1736
  64   2.0000      -0.328811        -8.9474
  65   2.0000      -0.324271        -8.8239
  66   2.0000      -0.304338        -8.2815
  67   2.0000      -0.294044        -8.0013
  68   2.0000      -0.282450        -7.6859
  69   2.0000      -0.258079        -7.0227
  70   2.0000      -0.235401        -6.4056
  71   2.0000      -0.216650        -5.8953
  72   2.0000      -0.211465        -5.7543
  73   0.0000      -0.055845        -1.5196
  74   0.0000      -0.054045        -1.4706
  75   0.0000      -0.029236        -0.7956
  76   0.0000      -0.009138        -0.2487
  77   0.0000      -0.002102        -0.0572

MULLIKEN ATOMIC CHARGES
-----------------------
   0 C :   -0.369363
   1 C :   -0.558469
   2 C :   -0.649722
   3 C :    0.775314
   4 C :    1.154199
   5 C :   -0.604044
   6 C :   -0.608158
   7 C :   -0.294358
   8 C :    1.341441
   9 C :   -0.430904
  10 C :   -0.508803
  11 C :    1.259269
  12 C :   -0.274386
  13 C :   -0.632013
  14 C :    1.016815
  15 C :   -0.653300
  16 C :   -0.401272
  17 C :   -0.593944
  18 C :   -0.576571
  19 C :    0.878559
  20 C :   -0.501975
  21 C :   -0.568493
  22 H :    0.194950
  23 H :    0.186955
  24 H :    0.041591
  25 H :    0.125106
  26 H :    0.118267
  27 H :    0.117048
  28 H :    0.115338
  29 H :    0.121705
  30 H :    0.119383
  31 H :    0.118175
  32 H :    0.124896
  33 H :    0.203407
  34 H :    0.183244
  35 H :    0.030113
Sum of atomic charges:   -0.0000000

LOEWDIN ATOMIC CHARGES
----------------------
   0 C :   -0.120153
   1 C :   -0.109933
   2 C :   -0.055297
   3 C :   -0.206887
   4 C :   -0.319334
   5 C :   -0.052293
   6 C :   -0.021822
   7 C :   -0.021812
   8 C :   -0.296296
   9 C :   -0.017572
  10 C :   -0.017524
  11 C :   -0.296332
  12 C :   -0.021845
  13 C :   -0.022033
  14 C :   -0.319383
  15 C :   -0.052324
  16 C :   -0.120185
  17 C :   -0.109831
  18 C :   -0.054815
  19 C :   -0.205954
  20 C :   -0.095878
  21 C :   -0.096061
  22 H :    0.168947
  23 H :    0.171057
  24 H :    0.213549
  25 H :    0.189588
  26 H :    0.190108
  27 H :    0.191868
  28 H :    0.191629
  29 H :    0.191570
  30 H :    0.191788
  31 H :    0.190157
  32 H :    0.189576
  33 H :    0.168965
  34 H :    0.171092
  35 H :    0.213669

  Mayer bond orders larger than 0.100000
B(  0-C ,  1-C ) :   1.1874 B(  0-C ,  2-C ) :   0.1149 B(  0-C ,  5-C ) :   1.2679
B(  0-C ,  6-C ) :  -0.1229 B(  0-C , 21-C ) :   0.1511 B(  0-C , 22-H ) :   0.9502
B(  1-C ,  2-C ) :   1.4172 B(  1-C ,  3-C ) :  -0.1891 B(  1-C ,  5-C ) :   0.1009
B(  1-C , 21-C ) :   0.1792 B(  1-C , 23-H ) :   0.9667 B(  2-C ,  3-C ) :   0.9455
B(  2-C ,  4-C ) :  -0.2337 B(  2-C , 18-C ) :   0.1081 B(  2-C , 24-H ) :   1.1354
B(  3-C ,  4-C ) :   0.6276 B(  3-C ,  5-C ) :   0.1046 B(  3-C ,  6-C ) :   0.1879
B(  3-C ,  7-C ) :  -0.3925 B(  3-C ,  8-C ) :  -0.4605 B(  3-C , 10-C ) :   0.2899
B(  3-C , 11-C ) :   0.1252 B(  3-C , 19-C ) :  -0.1184 B(  3-C , 20-C ) :   0.3167
B(  3-C , 21-C ) :   0.4413 B(  3-C , 24-H ) :  -0.1001 B(  4-C ,  5-C ) :   0.4808
B(  4-C ,  6-C ) :   0.3872 B(  4-C ,  7-C ) :   0.1364 B(  5-C ,  6-C ) :  -0.1109
B(  5-C ,  7-C ) :  -0.1532 B(  5-C , 21-C ) :   0.2030 B(  5-C , 25-H ) :   1.0549
B(  6-C ,  7-C ) :   1.1604 B(  6-C ,  9-C ) :  -0.3221 B(  6-C , 11-C ) :  -0.1058
B(  6-C , 20-C ) :   0.4124 B(  6-C , 26-H ) :   1.0764 B(  7-C ,  8-C ) :   0.6199
B(  7-C ,  9-C ) :  -0.2754 B(  7-C , 10-C ) :  -0.2384 B(  7-C , 12-C ) :   0.1239
B(  7-C , 21-C ) :   0.1005 B(  7-C , 27-H ) :   1.0820 B(  8-C ,  9-C ) :   0.4989
B(  8-C , 14-C ) :   0.1101 B(  8-C , 20-C ) :  -0.2596 B(  8-C , 21-C ) :  -0.1760
B(  9-C , 10-C ) :   1.3385 B(  9-C , 12-C ) :  -0.2197 B(  9-C , 19-C ) :   0.2220
B(  9-C , 20-C ) :  -0.2822 B(  9-C , 28-H ) :   1.1007 B( 10-C , 11-C ) :   0.5881
B( 10-C , 12-C ) :  -0.3112 B( 10-C , 13-C ) :  -0.3041 B( 10-C , 21-C ) :  -0.1820
B( 10-C , 29-H ) :   1.0918 B( 11-C , 12-C ) :   0.5796 B( 11-C , 14-C ) :  -0.1166
B( 11-C , 19-C ) :  -0.3964 B( 11-C , 20-C ) :  -0.1658 B( 11-C , 21-C ) :  -0.1735
B( 12-C , 13-C ) :   1.1749 B( 12-C , 15-C ) :  -0.1588 B( 12-C , 19-C ) :  -0.3793
B( 12-C , 20-C ) :   0.1062 B( 12-C , 21-C ) :  -0.1122 B( 12-C , 30-H ) :   1.0785
B( 13-C , 14-C ) :   0.4003 B( 13-C , 15-C ) :  -0.1384 B( 13-C , 19-C ) :   0.1394
B( 13-C , 20-C ) :   0.1340 B( 13-C , 21-C ) :   0.3532 B( 13-C , 31-H ) :   1.0747
B( 14-C , 15-C ) :   0.5098 B( 14-C , 18-C ) :  -0.2093 B( 14-C , 19-C ) :   0.6426
B( 14-C , 20-C ) :   0.1862 B( 15-C , 16-C ) :   1.3121 B( 15-C , 17-C ) :   0.1203
B( 15-C , 20-C ) :   0.2832 B( 15-C , 32-H ) :   1.0624 B( 16-C , 17-C ) :   1.2111
B( 16-C , 33-H ) :   0.9336 B( 17-C , 18-C ) :   1.3528 B( 17-C , 19-C ) :  -0.2617
B( 17-C , 20-C ) :   0.1703 B( 17-C , 34-H ) :   0.9758 B( 18-C , 19-C ) :   0.9845
B( 18-C , 35-H ) :   1.1456 B( 19-C , 20-C ) :   0.4189 B( 19-C , 21-C ) :   0.4234
B( 20-C , 21-C ) :   1.1740

-----------------------------------------------------------------------------
         ABSORPTION SPECTRUM VIA TRANSITION ELECTRIC DIPOLE MOMENTS
-----------------------------------------------------------------------------
State   Energy    Wavelength  fosc         T2        TX        TY        TZ
        (cm-1)      (nm)                 (au**2)    (au)      (au)      (au)
-----------------------------------------------------------------------------
   1   27454.5    364.2   0.002711730   0.03252  -0.03423   0.17586   0.02050
   2   29597.0    337.9   0.011653931   0.12963  -0.33449  -0.07627   0.10922
   3   31175.9    320.8   0.682496243   7.20703   2.59027   0.45753   0.53686
   4   33063.4    302.4   0.024034822   0.23931   0.42147   0.24126  -0.05894
   5   33094.8    302.2   0.144147593   1.43391   0.28624  -1.15418  -0.14088
   6   34165.2    292.7   0.008329725   0.08026   0.05772  -0.27567  -0.03062
   7   35909.4    278.5   0.212897949   1.95182   0.26379  -1.36372  -0.14997
   8   36874.5    271.2   0.576985302   5.15126   2.22657   0.43995  -0.00898
   9   37887.6    263.9   0.015261630   0.13261  -0.34221  -0.08626   0.08979
  10   38429.7    260.2   0.047684211   0.40849  -0.12324   0.62319   0.07028

FINAL SINGLE POINT ENERGY      -846.219130274573

DIPOLE MOMENT
-------------
                                X             Y             Z
Electronic contribution:      0.63327      -3.18878      -0.33041
Nuclear contribution   :     -0.60855       3.07600       0.31188
                        -----------------------------------------
Total Dipole Moment    :      0.02472      -0.11279      -0.01853
                        -----------------------------------------
Magnitude (a.u.)       :      0.11694
Magnitude (Debye)      :      0.29724

Rotational constants in cm-1:     0.015068     0.009268     0.006191
Rotational constants in MHz :   451.730685   277.862156   185.594987

                             ****ORCA TERMINATED NORMALLY****
TOTAL RUN TIME: 0 days 4 hours 19 minutes 44 seconds 408 msec
