                         Program Version 5.0.2 -  RELEASE  -
|  1> ! b3lyp aug-cc-PVTZ RIJCOSX Opt
|  2> %maxcore 4000
|  3> %basis
|  4>  AuxJ "aug-cc-PVTZ/JK"
|  5>  AuxC "aug-cc-PVTZ/C"
|  6>  newGTO H "cc-PVTZ" end
|  7>  newAuxJGTO H "cc-PVTZ/JK" end
|  8>  newAuxCGTO H "cc-PVTZ/C" end
|  9> end
| 10> %cpcm
| 11>  SMD true
| 12>  SMDsolvent "ethanol"
| 13> end
| 14> %pal nprocs 4 end
| 15> * xyz 0 1
| 16> C          7.12240        0.31380        0.93620
| 17> C          7.04720       -0.89500        0.26000
| 18> C          5.82560       -1.30360       -0.24170
| 19> C          4.71310       -0.48310       -0.04800
| 20> C          3.39440       -0.87590       -0.56410
| 21> C          2.28230       -0.06300       -0.35560
| 22> C          1.04600       -0.46030       -0.85190
| 23> C         -0.14230        0.38970       -0.67970
| 24> C         -0.06840        1.71650       -1.09430
| 25> C         -1.16310        2.55170       -1.02380
| 26> C         -2.38110        2.08790       -0.52440
| 27> C         -3.53690        2.91930       -0.45830
| 28> C         -4.70800        2.45620        0.03560
| 29> C         -4.82820        1.11880        0.51500
| 30> C         -6.02550        0.62130        1.03210
| 31> C         -6.11000       -0.67930        1.49390
| 32> C         -5.00690       -1.51200        1.45450
| 33> C         -3.79000       -1.05750        0.94430
| 34> C         -2.62640       -1.87890        0.90620
| 35> C         -1.45830       -1.42460        0.39620
| 36> C         -1.33990       -0.10470       -0.13390
| 37> C         -2.46940        0.75050       -0.06460
| 38> C         -3.69360        0.27110        0.46340
| 39> C          0.98770       -1.66310       -1.55740
| 40> C          2.15180       -2.39780       -1.71110
| 41> N          3.32310       -2.02770       -1.23060
| 42> N          4.78920        0.67740        0.60100
| 43> C          5.95910        1.05720        1.07510
| 44> H          8.05560        0.67050        1.34400
| 45> H          7.92850       -1.50670        0.12780
| 46> H          5.70410       -2.23170       -0.77590
| 47> H          2.39840        0.85350        0.20020
| 48> H          0.86310        2.08330       -1.50140
| 49> H         -1.08620        3.57430       -1.36450
| 50> H         -3.45120        3.93570       -0.81640
| 51> H         -5.58000        3.09330        0.08060
| 52> H         -6.89140        1.26690        1.06840
| 53> H         -7.04520       -1.04710        1.89090
| 54> H         -5.07850       -2.52610        1.82120
| 55> H         -2.69730       -2.88080        1.30590
| 56> H         -0.58400       -2.05870        0.39990
| 57> H          0.05890       -2.00290       -1.99000
| 58> H          2.14800       -3.33640       -2.25140
| 59> H          5.96260        2.00800        1.59360
| 60> *
| 61>
| 62>
| 63> $new_job
| 64> ! b3lyp aug-cc-PVTZ RIJCOSX SP
| 65> %maxcore 4000
| 66> %basis
| 67>  AuxJ "aug-cc-PVTZ/JK"
| 68>  AuxC "aug-cc-PVTZ/C"
| 69>  newGTO H "cc-PVTZ" end
| 70>  newAuxJGTO H "cc-PVTZ/JK" end
| 71>  newAuxCGTO H "cc-PVTZ/C" end
| 72> end
| 73> %cpcm
| 74>  SMD true
| 75>  SMDsolvent "ethanol"
| 76> end
| 77> %pal nprocs 4 end
| 78> %tddft
| 79>  nroots 10
| 80>  maxdim 7
| 81> end
| 82> * xyzfile 0 1
| 83>
| 84>                          ****END OF INPUT****
 Total Charge           Charge          ....    0
 Multiplicity           Mult            ....    1
 Number of Electrons    NEL             ....  186
FINAL SINGLE POINT ENERGY     -1109.670270303099
FINAL SINGLE POINT ENERGY     -1109.672485202708
FINAL SINGLE POINT ENERGY     -1109.672582700437
FINAL SINGLE POINT ENERGY     -1109.672597722036
FINAL SINGLE POINT ENERGY     -1109.672583392074
FINAL SINGLE POINT ENERGY     -1109.672579322668
FINAL SINGLE POINT ENERGY     -1109.672552365956
FINAL SINGLE POINT ENERGY     -1109.672564489545
FINAL SINGLE POINT ENERGY     -1109.672578814120
FINAL SINGLE POINT ENERGY     -1109.672582741782
FINAL SINGLE POINT ENERGY     -1109.672582606407
FINAL SINGLE POINT ENERGY     -1109.672579208516
FINAL SINGLE POINT ENERGY     -1109.672539501185
FINAL SINGLE POINT ENERGY     -1109.672577873712
FINAL SINGLE POINT ENERGY     -1109.672574537498
FINAL SINGLE POINT ENERGY     -1109.672409959252
FINAL SINGLE POINT ENERGY     -1109.672570032960
                    ***********************HURRAY********************
FINAL SINGLE POINT ENERGY     -1109.672569121825

CARTESIAN COORDINATES (ANGSTROEM)
---------------------------------
  C      7.160161    0.419347    0.898416
  C      7.050296   -0.891637    0.454119
  C      5.833462   -1.335510   -0.040909
  C      4.752126   -0.451550   -0.079321
  C      3.425863   -0.881774   -0.605347
  C      2.286287   -0.106555   -0.391602
  C      1.050381   -0.522819   -0.887946
  C     -0.153301    0.327018   -0.701511
  C     -0.063016    1.671890   -1.075880
  C     -1.138217    2.535681   -0.963719
  C     -2.362747    2.087834   -0.459304
  C     -3.495871    2.956836   -0.339730
  C     -4.677667    2.509931    0.152001
  C     -4.835769    1.149920    0.575157
  C     -6.046346    0.666937    1.087070
  C     -6.169645   -0.655958    1.493645
  C     -5.090125   -1.525170    1.403342
  C     -3.860704   -1.085176    0.897458
  C     -2.720081   -1.944216    0.806870
  C     -1.538195   -1.506733    0.304730
  C     -1.369627   -0.161125   -0.168828
  C     -2.482081    0.728768   -0.052966
  C     -3.723697    0.264856    0.471087
  C      1.023457   -1.724271   -1.600330
  C      2.203653   -2.433979   -1.765820
  N      3.381913   -2.038649   -1.284028
  N      4.858507    0.813863    0.355143
  C      6.033579    1.229142    0.827916
  H      8.089469    0.808891    1.290859
  H      7.899435   -1.561617    0.494244
  H      5.713964   -2.349473   -0.390410
  H      2.368023    0.810256    0.171660
  H      0.868551    2.040519   -1.484593
  H     -1.037113    3.567570   -1.275985
  H     -3.386228    3.987545   -0.654133
  H     -5.526075    3.178080    0.235252
  H     -6.891596    1.339750    1.163276
  H     -7.114023   -1.011137    1.885876
  H     -5.190191   -2.554129    1.725939
  H     -2.814575   -2.964538    1.158241
  H     -0.699090   -2.185591    0.272407
  H      0.108365   -2.097165   -2.037970
  H      2.199366   -3.364902   -2.322042
  H      6.078423    2.259042    1.164663

 Multiplicity           Mult            ....    1
 Number of Electrons    NEL             ....  186
 Basis Dimension        Dim             .... 1512

ORBITAL ENERGIES
----------------

  NO   OCC          E(Eh)            E(eV)
   0   2.0000     -14.318034      -389.6135
   1   2.0000     -14.317203      -389.5909
   2   2.0000     -10.219605      -278.0896
   3   2.0000     -10.219201      -278.0786
   4   2.0000     -10.207816      -277.7688
   5   2.0000     -10.207576      -277.7623
   6   2.0000     -10.203460      -277.6503
   7   2.0000     -10.194246      -277.3995
   8   2.0000     -10.193095      -277.3682
   9   2.0000     -10.190498      -277.2975
  10   2.0000     -10.189057      -277.2583
  11   2.0000     -10.188327      -277.2385
  12   2.0000     -10.188204      -277.2351
  13   2.0000     -10.187537      -277.2170
  14   2.0000     -10.186805      -277.1970
  15   2.0000     -10.180443      -277.0240
  16   2.0000     -10.180212      -277.0177
  17   2.0000     -10.179839      -277.0075
  18   2.0000     -10.179633      -277.0019
  19   2.0000     -10.177442      -276.9423
  20   2.0000     -10.177064      -276.9320
  21   2.0000     -10.176910      -276.9278
  22   2.0000     -10.176203      -276.9086
  23   2.0000     -10.176015      -276.9035
  24   2.0000     -10.175854      -276.8991
  25   2.0000     -10.175611      -276.8924
  26   2.0000     -10.175454      -276.8882
  27   2.0000     -10.174974      -276.8751
  28   2.0000      -0.958653       -26.0863
  29   2.0000      -0.940508       -25.5925
  30   2.0000      -0.897979       -24.4352
  31   2.0000      -0.860876       -23.4256
  32   2.0000      -0.836501       -22.7624
  33   2.0000      -0.820446       -22.3255
  34   2.0000      -0.804840       -21.9008
  35   2.0000      -0.794839       -21.6287
  36   2.0000      -0.790659       -21.5149
  37   2.0000      -0.765159       -20.8210
  38   2.0000      -0.749192       -20.3866
  39   2.0000      -0.743840       -20.2409
  40   2.0000      -0.732701       -19.9378
  41   2.0000      -0.713504       -19.4154
  42   2.0000      -0.657620       -17.8948
  43   2.0000      -0.650551       -17.7024
  44   2.0000      -0.631156       -17.1746
  45   2.0000      -0.630850       -17.1663
  46   2.0000      -0.625737       -17.0272
  47   2.0000      -0.614366       -16.7177
  48   2.0000      -0.609222       -16.5778
  49   2.0000      -0.588770       -16.0213
  50   2.0000      -0.546654       -14.8752
  51   2.0000      -0.538453       -14.6521
  52   2.0000      -0.519953       -14.1487
  53   2.0000      -0.512105       -13.9351
  54   2.0000      -0.511642       -13.9225
  55   2.0000      -0.498594       -13.5674
  56   2.0000      -0.495194       -13.4749
  57   2.0000      -0.483046       -13.1443
  58   2.0000      -0.474200       -12.9036
  59   2.0000      -0.469402       -12.7731
  60   2.0000      -0.455414       -12.3925
  61   2.0000      -0.445830       -12.1317
  62   2.0000      -0.439593       -11.9619
  63   2.0000      -0.437586       -11.9073
  64   2.0000      -0.431707       -11.7474
  65   2.0000      -0.426639       -11.6094
  66   2.0000      -0.422776       -11.5043
  67   2.0000      -0.418463       -11.3870
  68   2.0000      -0.415613       -11.3094
  69   2.0000      -0.401969       -10.9381
  70   2.0000      -0.396739       -10.7958
  71   2.0000      -0.396155       -10.7799
  72   2.0000      -0.392497       -10.6804
  73   2.0000      -0.388215       -10.5639
  74   2.0000      -0.377100       -10.2614
  75   2.0000      -0.370293       -10.0762
  76   2.0000      -0.367221        -9.9926
  77   2.0000      -0.364417        -9.9163
  78   2.0000      -0.357174        -9.7192
  79   2.0000      -0.348521        -9.4837
  80   2.0000      -0.330841        -9.0027
  81   2.0000      -0.321146        -8.7388
  82   2.0000      -0.310298        -8.4436
  83   2.0000      -0.299185        -8.1412
  84   2.0000      -0.293614        -7.9896
  85   2.0000      -0.284990        -7.7550
  86   2.0000      -0.275628        -7.5002
  87   2.0000      -0.273232        -7.4350
  88   2.0000      -0.261949        -7.1280
  89   2.0000      -0.259660        -7.0657
  90   2.0000      -0.243049        -6.6137
  91   2.0000      -0.237210        -6.4548
  92   2.0000      -0.203420        -5.5353
  93   0.0000      -0.070457        -1.9172
  94   0.0000      -0.058677        -1.5967
  95   0.0000      -0.038575        -1.0497
  96   0.0000      -0.034557        -0.9403
  97   0.0000      -0.021218        -0.5774

MULLIKEN ATOMIC CHARGES
-----------------------
   0 C :   -0.168193
   1 C :   -0.498995
   2 C :   -0.468536
   3 C :    1.553133
   4 C :    0.892720
   5 C :   -0.530815
   6 C :    1.156006
   7 C :    0.468450
   8 C :   -0.378907
   9 C :   -0.369578
  10 C :    1.290915
  11 C :   -0.558457
  12 C :   -0.606717
  13 C :    0.953737
  14 C :   -0.681094
  15 C :   -0.688097
  16 C :   -0.711222
  17 C :    0.609251
  18 C :   -1.163139
  19 C :   -0.369079
  20 C :    0.800588
  21 C :    0.250652
  22 C :    0.088534
  23 C :   -0.496507
  24 C :   -0.662047
  25 N :   -0.794445
  26 N :   -0.589135
  27 C :   -0.484489
  28 H :    0.162934
  29 H :    0.225939
  30 H :    0.114686
  31 H :    0.006528
  32 H :    0.106541
  33 H :    0.099016
  34 H :    0.122515
  35 H :    0.145703
  36 H :    0.108475
  37 H :    0.236300
  38 H :    0.099707
  39 H :    0.118676
  40 H :    0.053984
  41 H :    0.049372
  42 H :    0.266399
  43 H :    0.238690
Sum of atomic charges:   -0.0000000

LOEWDIN ATOMIC CHARGES
----------------------
   0 C :   -0.108116
   1 C :   -0.106765
   2 C :   -0.034323
   3 C :   -0.454169
   4 C :   -0.427481
   5 C :    0.065404
   6 C :   -0.311455
   7 C :   -0.224699
   8 C :    0.000318
   9 C :    0.000431
  10 C :   -0.285151
  11 C :   -0.011268
  12 C :   -0.012643
  13 C :   -0.293152
  14 C :   -0.032444
  15 C :   -0.097084
  16 C :   -0.031120
  17 C :   -0.294055
  18 C :   -0.003491
  19 C :    0.007684
  20 C :   -0.174339
  21 C :   -0.107038
  22 C :   -0.130231
  23 C :   -0.014999
  24 C :   -0.203418
  25 N :    0.256832
  26 N :    0.248611
  27 C :   -0.238685
  28 H :    0.168727
  29 H :    0.174766
  30 H :    0.193458
  31 H :    0.219260
  32 H :    0.203160
  33 H :    0.191231
  34 H :    0.190855
  35 H :    0.190390
  36 H :    0.188753
  37 H :    0.171818
  38 H :    0.188582
  39 H :    0.191447
  40 H :    0.205668
  41 H :    0.198484
  42 H :    0.171355
  43 H :    0.168894

  Mayer bond orders larger than 0.100000
B(  0-C ,  1-C ) :   1.3460 B(  0-C , 27-C ) :   1.0648 B(  0-C , 28-H ) :   1.0340
B(  1-C ,  2-C ) :   1.2019 B(  1-C ,  3-C ) :  -0.2724 B(  1-C ,  4-C ) :   0.1408
B(  1-C , 27-C ) :   0.1777 B(  1-C , 29-H ) :   0.9366 B(  2-C ,  3-C ) :   0.4174
B(  2-C ,  4-C ) :   0.1609 B(  2-C , 26-N ) :   0.1545 B(  2-C , 30-H ) :   1.1349
B(  3-C ,  4-C ) :   0.2747 B(  3-C ,  6-C ) :   0.1127 B(  3-C , 26-N ) :   0.3564
B(  3-C , 30-H ) :  -0.1388 B(  4-C ,  5-C ) :   0.5568 B(  4-C ,  6-C ) :  -0.1975
B(  4-C , 24-C ) :   0.2693 B(  4-C , 26-N ) :   0.1648 B(  4-C , 27-C ) :   0.1074
B(  4-C , 31-H ) :  -0.2116 B(  5-C ,  6-C ) :   0.7642 B(  5-C ,  7-C ) :   0.4282
B(  5-C , 23-C ) :  -0.1097 B(  5-C , 25-N ) :   0.2315 B(  5-C , 26-N ) :  -0.3933
B(  5-C , 31-H ) :   1.3525 B(  6-C ,  8-C ) :   0.1136 B(  6-C ,  9-C ) :   0.2302
B(  6-C , 10-C ) :   0.1263 B(  6-C , 19-C ) :  -0.1995 B(  6-C , 21-C ) :  -0.2632
B(  6-C , 23-C ) :   0.9480 B(  6-C , 24-C ) :  -0.1997 B(  6-C , 26-N ) :   0.1311
B(  6-C , 31-H ) :  -0.1291 B(  6-C , 41-H ) :  -0.1854 B(  7-C ,  8-C ) :   0.8382
B(  7-C ,  9-C ) :   0.1696 B(  7-C , 10-C ) :  -0.3631 B(  7-C , 13-C ) :  -0.1433
B(  7-C , 17-C ) :  -0.1415 B(  7-C , 19-C ) :  -0.1442 B(  7-C , 20-C ) :   0.3887
B(  7-C , 21-C ) :   1.0901 B(  7-C , 22-C ) :  -0.2382 B(  7-C , 23-C ) :   0.1769
B(  8-C ,  9-C ) :   0.9216 B(  8-C , 10-C ) :   0.3661 B(  8-C , 11-C ) :  -0.2607
B(  8-C , 12-C ) :  -0.1134 B(  8-C , 15-C ) :   0.1229 B(  8-C , 17-C ) :  -0.1418
B(  8-C , 19-C ) :  -0.1430 B(  8-C , 20-C ) :   0.1649 B(  8-C , 21-C ) :  -0.2599
B(  8-C , 22-C ) :  -0.1120 B(  8-C , 32-H ) :   1.0878 B(  9-C , 10-C ) :   0.8081
B(  9-C , 12-C ) :  -0.3874 B(  9-C , 17-C ) :  -0.2922 B(  9-C , 19-C ) :  -0.1628
B(  9-C , 20-C ) :  -0.1503 B(  9-C , 22-C ) :  -0.3991 B(  9-C , 33-H ) :   1.1391
B(  9-C , 34-H ) :  -0.1260 B( 10-C , 11-C ) :   0.2512 B( 10-C , 12-C ) :  -0.2862
B( 10-C , 13-C ) :  -0.2164 B( 10-C , 17-C ) :  -0.1772 B( 10-C , 19-C ) :   0.1220
B( 10-C , 20-C ) :  -0.2208 B( 10-C , 21-C ) :  -0.2807 B( 10-C , 22-C ) :   0.1800
B( 11-C , 12-C ) :   1.1966 B( 11-C , 13-C ) :   0.1164 B( 11-C , 14-C ) :  -0.2251
B( 11-C , 20-C ) :  -0.1958 B( 11-C , 21-C ) :   0.6278 B( 11-C , 22-C ) :  -0.4130
B( 11-C , 34-H ) :   1.0821 B( 12-C , 13-C ) :   0.2078 B( 12-C , 14-C ) :  -0.2630
B( 12-C , 15-C ) :  -0.3078 B( 12-C , 17-C ) :   0.2468 B( 12-C , 20-C ) :   0.4238
B( 12-C , 22-C ) :   0.6286 B( 12-C , 35-H ) :   1.0619 B( 13-C , 14-C ) :   0.6658
B( 13-C , 15-C ) :   0.1261 B( 13-C , 16-C ) :  -0.1054 B( 13-C , 17-C ) :   0.4727
B( 13-C , 21-C ) :  -0.2446 B( 13-C , 22-C ) :  -0.1441 B( 14-C , 15-C ) :   1.1753
B( 14-C , 16-C ) :   0.1955 B( 14-C , 20-C ) :   0.1640 B( 14-C , 21-C ) :   0.1325
B( 14-C , 22-C ) :  -0.1260 B( 14-C , 36-H ) :   1.1138 B( 15-C , 16-C ) :   1.1588
B( 15-C , 18-C ) :  -0.2244 B( 15-C , 21-C ) :   0.3953 B( 15-C , 22-C ) :  -0.1272
B( 15-C , 37-H ) :   0.9194 B( 16-C , 17-C ) :   0.4733 B( 16-C , 18-C ) :  -0.2460
B( 16-C , 19-C ) :  -0.2797 B( 16-C , 22-C ) :   0.2379 B( 16-C , 38-H ) :   1.1171
B( 17-C , 18-C ) :   0.4476 B( 17-C , 19-C ) :   0.4670 B( 17-C , 20-C ) :  -0.4031
B( 17-C , 21-C ) :   0.4923 B( 17-C , 22-C ) :   0.1115 B( 17-C , 38-H ) :  -0.1017
B( 18-C , 19-C ) :   0.7805 B( 18-C , 20-C ) :  -0.2658 B( 18-C , 21-C ) :   0.1520
B( 18-C , 22-C ) :   1.0314 B( 18-C , 23-C ) :   0.1019 B( 18-C , 38-H ) :  -0.1245
B( 18-C , 39-H ) :   1.1387 B( 18-C , 40-H ) :   0.1882 B( 19-C , 20-C ) :   0.1769
B( 19-C , 21-C ) :  -0.1312 B( 19-C , 22-C ) :  -0.7276 B( 19-C , 23-C ) :   0.3179
B( 19-C , 38-H ) :  -0.1050 B( 19-C , 39-H ) :  -0.1979 B( 19-C , 40-H ) :   1.1679
B( 20-C , 21-C ) :  -0.1289 B( 20-C , 22-C ) :   0.8847 B( 20-C , 23-C ) :  -0.1401
B( 20-C , 40-H ) :  -0.2019 B( 21-C , 22-C ) :  -1.0684 B( 21-C , 34-H ) :   0.1094
B( 22-C , 38-H ) :   0.1366 B( 23-C , 24-C ) :   0.8614 B( 23-C , 41-H ) :   1.2256
B( 24-C , 25-N ) :   1.3395 B( 24-C , 42-H ) :   0.8991 B( 26-N , 27-C ) :   1.3187
B( 27-C , 43-H ) :   0.9358

-----------------------------------------------------------------------------
         ABSORPTION SPECTRUM VIA TRANSITION ELECTRIC DIPOLE MOMENTS
-----------------------------------------------------------------------------
State   Energy    Wavelength  fosc         T2        TX        TY        TZ
        (cm-1)      (nm)                 (au**2)    (au)      (au)      (au)
-----------------------------------------------------------------------------
   1   27030.2    370.0   0.411662083   5.01379   2.15300  -0.04030  -0.61380
   2   28962.7    345.3   0.407441538   4.63129   2.02838   0.39564  -0.60037
   3   29724.9    336.4   0.001785455   0.01977   0.12466   0.06029  -0.02449
   4   33041.1    302.7   0.040746630   0.40599   0.33931   0.49731  -0.20868
   5   34137.7    292.9   0.064704809   0.62399   0.63277   0.34561   0.32271
   6   34523.2    289.7   0.021289214   0.20301  -0.09440  -0.39646   0.19216
   7   34546.5    289.5   0.000731164   0.00697   0.04035  -0.02496   0.06868
   8   35327.3    283.1   0.088301220   0.82287  -0.16784   0.88994  -0.05203
   9   36278.6    275.6   0.313676098   2.84647   1.38024  -0.87575   0.41770
  10   36619.0    273.1   0.007670505   0.06896  -0.24093   0.07595  -0.07171

FINAL SINGLE POINT ENERGY     -1109.549410023828

DIPOLE MOMENT
-------------
                                X             Y             Z
Electronic contribution:     -0.58302       0.04957      -1.39105
Nuclear contribution   :      0.28718      -0.03956       1.67399
                        -----------------------------------------
Total Dipole Moment    :     -0.29583       0.01001       0.28294
                        -----------------------------------------
Magnitude (a.u.)       :      0.40948
Magnitude (Debye)      :      1.04081

Rotational constants in cm-1:     0.016146     0.002649     0.002446
Rotational constants in MHz :   484.047137    79.416785    73.332442

                             ****ORCA TERMINATED NORMALLY****
TOTAL RUN TIME: 0 days 16 hours 55 minutes 20 seconds 538 msec
