                         Program Version 5.0.2 -  RELEASE  -
|  1> ! m062x defgrid3 aug-cc-PVTZ RIJCOSX Opt
|  2> %maxcore 4000
|  3> %basis
|  4>  AuxJ "aug-cc-PVTZ/JK"
|  5>  AuxC "aug-cc-PVTZ/C"
|  6>  newGTO H "cc-PVTZ" end
|  7>  newAuxJGTO H "cc-PVTZ/JK" end
|  8>  newAuxCGTO H "cc-PVTZ/C" end
|  9> end
| 10> %cpcm
| 11>  SMD true
| 12>  SMDsolvent "ethanol"
| 13> end
| 14> %pal nprocs 4 end
| 15> * xyz 0 1
| 16> C          7.12240        0.31380        0.93620
| 17> C          7.04720       -0.89500        0.26000
| 18> C          5.82560       -1.30360       -0.24170
| 19> C          4.71310       -0.48310       -0.04800
| 20> C          3.39440       -0.87590       -0.56410
| 21> C          2.28230       -0.06300       -0.35560
| 22> C          1.04600       -0.46030       -0.85190
| 23> C         -0.14230        0.38970       -0.67970
| 24> C         -0.06840        1.71650       -1.09430
| 25> C         -1.16310        2.55170       -1.02380
| 26> C         -2.38110        2.08790       -0.52440
| 27> C         -3.53690        2.91930       -0.45830
| 28> C         -4.70800        2.45620        0.03560
| 29> C         -4.82820        1.11880        0.51500
| 30> C         -6.02550        0.62130        1.03210
| 31> C         -6.11000       -0.67930        1.49390
| 32> C         -5.00690       -1.51200        1.45450
| 33> C         -3.79000       -1.05750        0.94430
| 34> C         -2.62640       -1.87890        0.90620
| 35> C         -1.45830       -1.42460        0.39620
| 36> C         -1.33990       -0.10470       -0.13390
| 37> C         -2.46940        0.75050       -0.06460
| 38> C         -3.69360        0.27110        0.46340
| 39> C          0.98770       -1.66310       -1.55740
| 40> C          2.15180       -2.39780       -1.71110
| 41> N          3.32310       -2.02770       -1.23060
| 42> N          4.78920        0.67740        0.60100
| 43> C          5.95910        1.05720        1.07510
| 44> H          8.05560        0.67050        1.34400
| 45> H          7.92850       -1.50670        0.12780
| 46> H          5.70410       -2.23170       -0.77590
| 47> H          2.39840        0.85350        0.20020
| 48> H          0.86310        2.08330       -1.50140
| 49> H         -1.08620        3.57430       -1.36450
| 50> H         -3.45120        3.93570       -0.81640
| 51> H         -5.58000        3.09330        0.08060
| 52> H         -6.89140        1.26690        1.06840
| 53> H         -7.04520       -1.04710        1.89090
| 54> H         -5.07850       -2.52610        1.82120
| 55> H         -2.69730       -2.88080        1.30590
| 56> H         -0.58400       -2.05870        0.39990
| 57> H          0.05890       -2.00290       -1.99000
| 58> H          2.14800       -3.33640       -2.25140
| 59> H          5.96260        2.00800        1.59360
| 60> *
| 61>
| 62>
| 63> $new_job
| 64> ! m062x defgrid3 aug-cc-PVTZ RIJCOSX SP
| 65> %maxcore 4000
| 66> %basis
| 67>  AuxJ "aug-cc-PVTZ/JK"
| 68>  AuxC "aug-cc-PVTZ/C"
| 69>  newGTO H "cc-PVTZ" end
| 70>  newAuxJGTO H "cc-PVTZ/JK" end
| 71>  newAuxCGTO H "cc-PVTZ/C" end
| 72> end
| 73> %cpcm
| 74>  SMD true
| 75>  SMDsolvent "ethanol"
| 76> end
| 77> %pal nprocs 4 end
| 78> %tddft
| 79>  nroots 10
| 80>  maxdim 7
| 81> end
| 82> * xyzfile 0 1
| 83>
| 84>                          ****END OF INPUT****
 Total Charge           Charge          ....    0
 Multiplicity           Mult            ....    1
 Number of Electrons    NEL             ....  186
FINAL SINGLE POINT ENERGY     -1109.924027213036
FINAL SINGLE POINT ENERGY     -1109.925349180566
FINAL SINGLE POINT ENERGY     -1109.925498153570
FINAL SINGLE POINT ENERGY     -1109.925514405749
FINAL SINGLE POINT ENERGY     -1109.925524216379
FINAL SINGLE POINT ENERGY     -1109.925527337339
                    ***********************HURRAY********************
FINAL SINGLE POINT ENERGY     -1109.925525984997

CARTESIAN COORDINATES (ANGSTROEM)
---------------------------------
  C      7.166250    0.382935    0.887332
  C      7.098562   -0.827511    0.215660
  C      5.874892   -1.262690   -0.264708
  C      4.750241   -0.467450   -0.057860
  C      3.411363   -0.890785   -0.560320
  C      2.288734   -0.096657   -0.348157
  C      1.049590   -0.515627   -0.821445
  C     -0.146889    0.342863   -0.649170
  C     -0.050696    1.678698   -1.039227
  C     -1.135052    2.533314   -0.967047
  C     -2.363311    2.078942   -0.488118
  C     -3.511834    2.939168   -0.421530
  C     -4.693595    2.492018    0.051790
  C     -4.841909    1.139594    0.512667
  C     -6.054703    0.660620    1.010987
  C     -6.170139   -0.648280    1.456739
  C     -5.078827   -1.503583    1.415661
  C     -3.850663   -1.062861    0.919737
  C     -2.697513   -1.914874    0.874328
  C     -1.518736   -1.480573    0.379446
  C     -1.361123   -0.142290   -0.128208
  C     -2.477096    0.734851   -0.054762
  C     -3.723435    0.269872    0.459346
  C      0.996710   -1.727011   -1.507053
  C      2.166452   -2.449368   -1.674853
  N      3.350009   -2.053503   -1.215625
  N      4.813374    0.699424    0.590579
  C      5.993673    1.106757    1.047667
  H      8.099445    0.762294    1.279135
  H      7.987280   -1.426787    0.066889
  H      5.781542   -2.199553   -0.792283
  H      2.386069    0.835001    0.189501
  H      0.889865    2.042616   -1.433014
  H     -1.040251    3.561345   -1.293892
  H     -3.403028    3.961157   -0.763593
  H     -5.555352    3.146685    0.096561
  H     -6.907863    1.326903    1.046146
  H     -7.117232   -1.003187    1.841421
  H     -5.168873   -2.523513    1.768859
  H     -2.790515   -2.923612    1.258172
  H     -0.667134   -2.145604    0.382021
  H      0.067813   -2.096077   -1.919954
  H      2.148340   -3.391600   -2.210301
  H      6.004866    2.057939    1.567476

 Multiplicity           Mult            ....    1
 Number of Electrons    NEL             ....  186
 Basis Dimension        Dim             .... 1512

ORBITAL ENERGIES
----------------

  NO   OCC          E(Eh)            E(eV)
   0   2.0000     -14.753684      -401.4682
   1   2.0000     -14.753549      -401.4645
   2   2.0000     -10.589502      -288.1550
   3   2.0000     -10.588584      -288.1300
   4   2.0000     -10.577955      -287.8408
   5   2.0000     -10.577138      -287.8186
   6   2.0000     -10.572696      -287.6977
   7   2.0000     -10.563895      -287.4582
   8   2.0000     -10.562530      -287.4211
   9   2.0000     -10.560076      -287.3543
  10   2.0000     -10.557777      -287.2917
  11   2.0000     -10.557670      -287.2888
  12   2.0000     -10.557604      -287.2870
  13   2.0000     -10.556501      -287.2570
  14   2.0000     -10.555915      -287.2410
  15   2.0000     -10.549437      -287.0648
  16   2.0000     -10.548763      -287.0464
  17   2.0000     -10.547746      -287.0188
  18   2.0000     -10.547679      -287.0169
  19   2.0000     -10.547339      -287.0077
  20   2.0000     -10.547069      -287.0003
  21   2.0000     -10.546748      -286.9916
  22   2.0000     -10.545978      -286.9706
  23   2.0000     -10.545768      -286.9649
  24   2.0000     -10.545624      -286.9610
  25   2.0000     -10.545416      -286.9554
  26   2.0000     -10.545032      -286.9449
  27   2.0000     -10.544108      -286.9198
  28   2.0000      -1.075692       -29.2711
  29   2.0000      -1.055525       -28.7223
  30   2.0000      -1.011409       -27.5218
  31   2.0000      -0.971452       -26.4346
  32   2.0000      -0.944421       -25.6990
  33   2.0000      -0.926675       -25.2161
  34   2.0000      -0.908800       -24.7297
  35   2.0000      -0.899054       -24.4645
  36   2.0000      -0.894041       -24.3281
  37   2.0000      -0.866669       -23.5833
  38   2.0000      -0.850335       -23.1388
  39   2.0000      -0.843138       -22.9430
  40   2.0000      -0.831372       -22.6228
  41   2.0000      -0.810783       -22.0625
  42   2.0000      -0.747253       -20.3338
  43   2.0000      -0.741096       -20.1663
  44   2.0000      -0.719159       -19.5693
  45   2.0000      -0.718577       -19.5535
  46   2.0000      -0.713954       -19.4277
  47   2.0000      -0.701289       -19.0831
  48   2.0000      -0.695058       -18.9135
  49   2.0000      -0.672423       -18.2975
  50   2.0000      -0.627843       -17.0845
  51   2.0000      -0.619433       -16.8556
  52   2.0000      -0.598781       -16.2936
  53   2.0000      -0.589482       -16.0406
  54   2.0000      -0.587736       -15.9931
  55   2.0000      -0.574095       -15.6219
  56   2.0000      -0.569389       -15.4939
  57   2.0000      -0.558277       -15.1915
  58   2.0000      -0.547757       -14.9052
  59   2.0000      -0.540148       -14.6982
  60   2.0000      -0.527354       -14.3500
  61   2.0000      -0.517454       -14.0806
  62   2.0000      -0.511274       -13.9125
  63   2.0000      -0.508181       -13.8283
  64   2.0000      -0.501484       -13.6461
  65   2.0000      -0.500780       -13.6269
  66   2.0000      -0.498098       -13.5539
  67   2.0000      -0.492860       -13.4114
  68   2.0000      -0.483382       -13.1535
  69   2.0000      -0.470764       -12.8101
  70   2.0000      -0.468745       -12.7552
  71   2.0000      -0.463080       -12.6010
  72   2.0000      -0.461903       -12.5690
  73   2.0000      -0.453490       -12.3401
  74   2.0000      -0.445019       -12.1096
  75   2.0000      -0.438391       -11.9292
  76   2.0000      -0.429008       -11.6739
  77   2.0000      -0.426068       -11.5939
  78   2.0000      -0.419640       -11.4190
  79   2.0000      -0.415702       -11.3118
  80   2.0000      -0.388159       -10.5623
  81   2.0000      -0.379298       -10.3212
  82   2.0000      -0.373126       -10.1533
  83   2.0000      -0.359310        -9.7773
  84   2.0000      -0.353853        -9.6288
  85   2.0000      -0.345083        -9.3902
  86   2.0000      -0.342662        -9.3243
  87   2.0000      -0.329915        -8.9774
  88   2.0000      -0.325203        -8.8492
  89   2.0000      -0.319760        -8.7011
  90   2.0000      -0.294131        -8.0037
  91   2.0000      -0.287112        -7.8127
  92   2.0000      -0.249848        -6.7987
  93   0.0000      -0.046704        -1.2709
  94   0.0000      -0.030858        -0.8397
  95   0.0000      -0.012773        -0.3476
  96   0.0000      -0.006718        -0.1828
  97   0.0000      -0.000302        -0.0082

MULLIKEN ATOMIC CHARGES
-----------------------
   0 C :   -0.179140
   1 C :   -0.612879
   2 C :   -0.301163
   3 C :    1.888862
   4 C :    1.135896
   5 C :   -0.473552
   6 C :    1.170427
   7 C :    0.366992
   8 C :   -0.349778
   9 C :   -0.598302
  10 C :    1.743866
  11 C :   -0.415012
  12 C :   -0.609513
  13 C :    1.039652
  14 C :   -0.817655
  15 C :   -0.860503
  16 C :   -0.819347
  17 C :    0.739980
  18 C :   -1.276191
  19 C :   -0.272675
  20 C :    1.392710
  21 C :    0.356996
  22 C :    0.192705
  23 C :   -0.481807
  24 C :   -0.901352
  25 N :   -0.993163
  26 N :   -0.622037
  27 C :   -0.545895
  28 H :    0.091445
  29 H :    0.149936
  30 H :    0.078089
  31 H :   -0.030880
  32 H :    0.013241
  33 H :    0.015062
  34 H :    0.047067
  35 H :    0.077603
  36 H :    0.018102
  37 H :    0.163183
  38 H :    0.006153
  39 H :    0.039524
  40 H :   -0.054323
  41 H :    0.030799
  42 H :    0.245242
  43 H :    0.211631
Sum of atomic charges:   -0.0000000

LOEWDIN ATOMIC CHARGES
----------------------
   0 C :   -0.106754
   1 C :   -0.106324
   2 C :   -0.034167
   3 C :   -0.462912
   4 C :   -0.433612
   5 C :    0.066475
   6 C :   -0.323536
   7 C :   -0.235483
   8 C :    0.004653
   9 C :    0.004075
  10 C :   -0.289973
  11 C :   -0.009803
  12 C :   -0.011289
  13 C :   -0.299481
  14 C :   -0.030855
  15 C :   -0.093695
  16 C :   -0.029516
  17 C :   -0.299744
  18 C :   -0.000840
  19 C :    0.007477
  20 C :   -0.181592
  21 C :   -0.114249
  22 C :   -0.137888
  23 C :   -0.014508
  24 C :   -0.199112
  25 N :    0.258194
  26 N :    0.248902
  27 C :   -0.237955
  28 H :    0.170275
  29 H :    0.176459
  30 H :    0.196819
  31 H :    0.224012
  32 H :    0.206660
  33 H :    0.193992
  34 H :    0.193218
  35 H :    0.192834
  36 H :    0.191653
  37 H :    0.173438
  38 H :    0.191497
  39 H :    0.193962
  40 H :    0.209796
  41 H :    0.204030
  42 H :    0.173768
  43 H :    0.171099

  Mayer bond orders larger than 0.100000
B(  0-C ,  1-C ) :   1.2201 B(  0-C ,  2-C ) :  -0.1020 B(  0-C ,  4-C ) :   0.1088
B(  0-C , 27-C ) :   0.9105 B(  0-C , 28-H ) :   1.1745 B(  0-C , 43-H ) :  -0.1003
B(  1-C ,  2-C ) :   0.8872 B(  1-C ,  3-C ) :  -0.4405 B(  1-C ,  4-C ) :   0.2517
B(  1-C , 27-C ) :   0.2523 B(  1-C , 29-H ) :   1.1135 B(  2-C ,  3-C ) :   0.1138
B(  2-C ,  4-C ) :   0.1807 B(  2-C , 26-N ) :   0.1803 B(  2-C , 29-H ) :  -0.1145
B(  2-C , 30-H ) :   1.2492 B(  3-C ,  4-C ) :   0.1280 B(  3-C ,  5-C ) :   0.1155
B(  3-C ,  6-C ) :   0.1472 B(  3-C , 25-N ) :  -0.2330 B(  3-C , 26-N ) :   0.2782
B(  3-C , 30-H ) :  -0.3459 B(  4-C ,  5-C ) :   0.2253 B(  4-C ,  6-C ) :  -0.2054
B(  4-C ,  8-C ) :   0.1185 B(  4-C , 23-C ) :   0.1519 B(  4-C , 24-C ) :   0.3118
B(  4-C , 25-N ) :  -0.4064 B(  4-C , 27-C ) :   0.1150 B(  4-C , 31-H ) :  -0.3709
B(  5-C ,  6-C ) :   0.5388 B(  5-C ,  7-C ) :   0.2645 B(  5-C ,  8-C ) :  -0.1184
B(  5-C ,  9-C ) :  -0.1477 B(  5-C , 20-C ) :   0.1169 B(  5-C , 23-C ) :  -0.3441
B(  5-C , 24-C ) :  -0.1871 B(  5-C , 25-N ) :   0.3174 B(  5-C , 26-N ) :  -0.2032
B(  5-C , 31-H ) :   1.5505 B(  6-C ,  9-C ) :   0.2466 B(  6-C , 11-C ) :  -0.1550
B(  6-C , 19-C ) :  -0.4353 B(  6-C , 20-C ) :   0.1698 B(  6-C , 21-C ) :  -0.2074
B(  6-C , 22-C ) :   0.2170 B(  6-C , 23-C ) :   0.5997 B(  6-C , 24-C ) :  -0.2531
B(  6-C , 31-H ) :  -0.3034 B(  6-C , 41-H ) :  -0.3452 B(  7-C ,  8-C ) :   0.3658
B(  7-C ,  9-C ) :   0.2399 B(  7-C , 10-C ) :  -0.3536 B(  7-C , 18-C ) :   0.3040
B(  7-C , 20-C ) :   0.5136 B(  7-C , 21-C ) :   0.7939 B(  7-C , 22-C ) :  -0.5721
B(  7-C , 24-C ) :   0.1706 B(  7-C , 31-H ) :   0.1029 B(  7-C , 32-H ) :  -0.3263
B(  8-C ,  9-C ) :   0.9706 B(  8-C , 10-C ) :   0.5810 B(  8-C , 11-C ) :  -0.3788
B(  8-C , 12-C ) :  -0.2920 B(  8-C , 13-C ) :   0.1765 B(  8-C , 14-C ) :  -0.1598
B(  8-C , 15-C ) :   0.2307 B(  8-C , 16-C ) :  -0.1055 B(  8-C , 17-C ) :  -0.1576
B(  8-C , 18-C ) :  -0.1015 B(  8-C , 19-C ) :  -0.1502 B(  8-C , 20-C ) :   0.1493
B(  8-C , 21-C ) :  -0.3605 B(  8-C , 32-H ) :   1.3667 B(  8-C , 33-H ) :  -0.1639
B(  8-C , 34-H ) :  -0.1373 B(  9-C , 10-C ) :   0.7580 B(  9-C , 11-C ) :  -0.3334
B(  9-C , 12-C ) :  -0.4155 B(  9-C , 17-C ) :  -0.1776 B(  9-C , 19-C ) :  -0.1400
B(  9-C , 20-C ) :  -0.3173 B(  9-C , 21-C ) :   0.1506 B(  9-C , 22-C ) :  -0.2242
B(  9-C , 32-H ) :  -0.1363 B(  9-C , 33-H ) :   1.3167 B(  9-C , 34-H ) :  -0.1909
B( 10-C , 11-C ) :   0.2231 B( 10-C , 12-C ) :  -0.3377 B( 10-C , 13-C ) :  -0.1992
B( 10-C , 14-C ) :  -0.1428 B( 10-C , 16-C ) :   0.1200 B( 10-C , 17-C ) :  -0.2434
B( 10-C , 18-C ) :  -0.1646 B( 10-C , 20-C ) :  -0.5738 B( 10-C , 21-C ) :  -0.4489
B( 10-C , 22-C ) :  -0.4034 B( 10-C , 33-H ) :  -0.1404 B( 10-C , 34-H ) :  -0.1853
B( 11-C , 12-C ) :   1.2421 B( 11-C , 13-C ) :   0.4359 B( 11-C , 14-C ) :  -0.3403
B( 11-C , 15-C ) :  -0.1223 B( 11-C , 16-C ) :   0.1267 B( 11-C , 17-C ) :  -0.1860
B( 11-C , 20-C ) :  -0.4040 B( 11-C , 21-C ) :   0.5377 B( 11-C , 22-C ) :  -0.8120
B( 11-C , 34-H ) :   1.2578 B( 11-C , 35-H ) :  -0.2543 B( 11-C , 36-H ) :  -0.1655
B( 12-C , 13-C ) :   0.3240 B( 12-C , 14-C ) :  -0.5642 B( 12-C , 15-C ) :  -0.3349
B( 12-C , 17-C ) :   0.1785 B( 12-C , 20-C ) :   0.5234 B( 12-C , 21-C ) :  -0.3714
B( 12-C , 22-C ) :   0.7280 B( 12-C , 35-H ) :   1.2174 B( 12-C , 36-H ) :  -0.1986
B( 13-C , 14-C ) :   0.3860 B( 13-C , 15-C ) :   0.1938 B( 13-C , 17-C ) :   0.1087
B( 13-C , 20-C ) :  -0.1194 B( 13-C , 21-C ) :  -0.6269 B( 13-C , 22-C ) :   0.1299
B( 13-C , 36-H ) :  -0.1885 B( 14-C , 15-C ) :   1.0267 B( 14-C , 16-C ) :   0.1706
B( 14-C , 17-C ) :   0.2310 B( 14-C , 18-C ) :   0.1479 B( 14-C , 19-C ) :   0.1597
B( 14-C , 20-C ) :   0.2886 B( 14-C , 36-H ) :   1.2860 B( 14-C , 37-H ) :  -0.1067
B( 15-C , 16-C ) :   1.0511 B( 15-C , 18-C ) :  -0.2434 B( 15-C , 21-C ) :   0.5925
B( 15-C , 22-C ) :  -0.2706 B( 15-C , 37-H ) :   1.0763 B( 16-C , 17-C ) :   0.2363
B( 16-C , 18-C ) :  -0.5205 B( 16-C , 19-C ) :  -0.4524 B( 16-C , 22-C ) :   0.4067
B( 16-C , 37-H ) :  -0.1101 B( 16-C , 38-H ) :   1.3032 B( 17-C , 18-C ) :   0.5290
B( 17-C , 19-C ) :   0.8998 B( 17-C , 20-C ) :  -0.6109 B( 17-C , 21-C ) :   0.2220
B( 17-C , 38-H ) :  -0.2233 B( 17-C , 40-H ) :   0.1125 B( 18-C , 19-C ) :   0.6731
B( 18-C , 20-C ) :  -0.4783 B( 18-C , 22-C ) :   1.0796 B( 18-C , 23-C ) :   0.2175
B( 18-C , 38-H ) :  -0.2813 B( 18-C , 39-H ) :   1.3387 B( 18-C , 40-H ) :   0.1933
B( 19-C , 20-C ) :  -0.5283 B( 19-C , 21-C ) :  -0.3352 B( 19-C , 22-C ) :  -1.0768
B( 19-C , 23-C ) :   0.4721 B( 19-C , 38-H ) :  -0.2063 B( 19-C , 39-H ) :  -0.4178
B( 19-C , 40-H ) :   1.5432 B( 20-C , 21-C ) :   0.7073 B( 20-C , 22-C ) :   0.3125
B( 20-C , 23-C ) :  -0.2832 B( 20-C , 40-H ) :  -0.7027 B( 21-C , 22-C ) :   0.3445
B( 21-C , 33-H ) :   0.1521 B( 21-C , 34-H ) :   0.1809 B( 21-C , 38-H ) :   0.1038
B( 22-C , 23-C ) :  -0.1044 B( 22-C , 36-H ) :   0.1504 B( 22-C , 38-H ) :   0.2814
B( 22-C , 39-H ) :   0.1083 B( 23-C , 24-C ) :   0.7064 B( 23-C , 41-H ) :   1.3713
B( 23-C , 42-H ) :  -0.1089 B( 24-C , 25-N ) :   1.4612 B( 24-C , 42-H ) :   1.0094
B( 25-N , 26-N ) :   0.1134 B( 26-N , 27-C ) :   1.2728 B( 27-C , 28-H ) :  -0.1064
B( 27-C , 43-H ) :   1.0396

-----------------------------------------------------------------------------
         ABSORPTION SPECTRUM VIA TRANSITION ELECTRIC DIPOLE MOMENTS
-----------------------------------------------------------------------------
State   Energy    Wavelength  fosc         T2        TX        TY        TZ
        (cm-1)      (nm)                 (au**2)    (au)      (au)      (au)
-----------------------------------------------------------------------------
   1   31563.2    316.8   0.969894023  10.11622   3.04630   0.27358  -0.87260
   2   32454.1    308.1   0.023520736   0.23859   0.41950   0.18751  -0.16568
   3   36439.7    274.4   0.031844102   0.28769  -0.03288  -0.50760   0.17017
   4   37760.5    264.8   0.007477163   0.06519  -0.14996  -0.12373   0.16550
   5   38656.0    258.7   0.068278702   0.58149  -0.71720  -0.13542  -0.22087
   6   39383.4    253.9   0.459190117   3.83845  -1.74663  -0.65827  -0.59533
   7   39946.1    250.3   0.241999703   1.99442   1.21581  -0.63475   0.33660
   8   40203.3    248.7   0.536647601   4.39443  -1.73301   1.10115  -0.42258
   9   41183.5    242.8   0.261442486   2.08992  -0.18514   1.42758  -0.13282
  10   41401.8    241.5   0.182881140   1.45421   0.30463   1.16397  -0.08116

FINAL SINGLE POINT ENERGY     -1109.781715331511

DIPOLE MOMENT
-------------
                                X             Y             Z
Electronic contribution:     -0.56749       0.00382      -1.15286
Nuclear contribution   :      0.36091       0.08403       1.20971
                        -----------------------------------------
Total Dipole Moment    :     -0.20658       0.08785       0.05686
                        -----------------------------------------
Magnitude (a.u.)       :      0.23157
Magnitude (Debye)      :      0.58861

Rotational constants in cm-1:     0.016526     0.002652     0.002454
Rotational constants in MHz :   495.436956    79.503153    73.564836

                             ****ORCA TERMINATED NORMALLY****
TOTAL RUN TIME: 0 days 12 hours 48 minutes 57 seconds 926 msec
