                         Program Version 5.0.2 -  RELEASE  -
|  1> ! pbe0 d3bj aug-cc-PVTZ RIJCOSX Opt
|  2> %maxcore 4000
|  3> %basis
|  4>  AuxJ "aug-cc-PVTZ/JK"
|  5>  AuxC "aug-cc-PVTZ/C"
|  6>  newGTO H "cc-PVTZ" end
|  7>  newAuxJGTO H "cc-PVTZ/JK" end
|  8>  newAuxCGTO H "cc-PVTZ/C" end
|  9> end
| 10> %cpcm
| 11>  SMD true
| 12>  SMDsolvent "ethanol"
| 13> end
| 14> %pal nprocs 4 end
| 15> * xyz 0 1
| 16> C          7.12240        0.31380        0.93620
| 17> C          7.04720       -0.89500        0.26000
| 18> C          5.82560       -1.30360       -0.24170
| 19> C          4.71310       -0.48310       -0.04800
| 20> C          3.39440       -0.87590       -0.56410
| 21> C          2.28230       -0.06300       -0.35560
| 22> C          1.04600       -0.46030       -0.85190
| 23> C         -0.14230        0.38970       -0.67970
| 24> C         -0.06840        1.71650       -1.09430
| 25> C         -1.16310        2.55170       -1.02380
| 26> C         -2.38110        2.08790       -0.52440
| 27> C         -3.53690        2.91930       -0.45830
| 28> C         -4.70800        2.45620        0.03560
| 29> C         -4.82820        1.11880        0.51500
| 30> C         -6.02550        0.62130        1.03210
| 31> C         -6.11000       -0.67930        1.49390
| 32> C         -5.00690       -1.51200        1.45450
| 33> C         -3.79000       -1.05750        0.94430
| 34> C         -2.62640       -1.87890        0.90620
| 35> C         -1.45830       -1.42460        0.39620
| 36> C         -1.33990       -0.10470       -0.13390
| 37> C         -2.46940        0.75050       -0.06460
| 38> C         -3.69360        0.27110        0.46340
| 39> C          0.98770       -1.66310       -1.55740
| 40> C          2.15180       -2.39780       -1.71110
| 41> N          3.32310       -2.02770       -1.23060
| 42> N          4.78920        0.67740        0.60100
| 43> C          5.95910        1.05720        1.07510
| 44> H          8.05560        0.67050        1.34400
| 45> H          7.92850       -1.50670        0.12780
| 46> H          5.70410       -2.23170       -0.77590
| 47> H          2.39840        0.85350        0.20020
| 48> H          0.86310        2.08330       -1.50140
| 49> H         -1.08620        3.57430       -1.36450
| 50> H         -3.45120        3.93570       -0.81640
| 51> H         -5.58000        3.09330        0.08060
| 52> H         -6.89140        1.26690        1.06840
| 53> H         -7.04520       -1.04710        1.89090
| 54> H         -5.07850       -2.52610        1.82120
| 55> H         -2.69730       -2.88080        1.30590
| 56> H         -0.58400       -2.05870        0.39990
| 57> H          0.05890       -2.00290       -1.99000
| 58> H          2.14800       -3.33640       -2.25140
| 59> H          5.96260        2.00800        1.59360
| 60> *
| 61>
| 62>
| 63> $new_job
| 64> ! b2gp-plyp aug-cc-PVTZ RIJCOSX SP
| 65> %maxcore 4000
| 66> %basis
| 67>  AuxJ "aug-cc-PVTZ/JK"
| 68>  AuxC "aug-cc-PVTZ/C"
| 69>  newGTO H "cc-PVTZ" end
| 70>  newAuxJGTO H "cc-PVTZ/JK" end
| 71>  newAuxCGTO H "cc-PVTZ/C" end
| 72> end
| 73> %cpcm
| 74>  SMD true
| 75>  SMDsolvent "ethanol"
| 76> end
| 77> %pal nprocs 4 end
| 78> %tddft
| 79>  nroots 10
| 80>  maxdim 7
| 81> end
| 82> * xyzfile 0 1
| 83>
| 84>                          ****END OF INPUT****
 Total Charge           Charge          ....    0
 Multiplicity           Mult            ....    1
 Number of Electrons    NEL             ....  186
Dispersion correction           -0.060551480
FINAL SINGLE POINT ENERGY     -1109.104649442385
Dispersion correction            ... done
Dispersion correction           -0.060449308
FINAL SINGLE POINT ENERGY     -1109.105350885400
Dispersion correction            ... done
Dispersion correction           -0.060419090
FINAL SINGLE POINT ENERGY     -1109.105388047447
Dispersion correction            ... done
FINAL SINGLE POINT ENERGY     -1109.105336065710
FINAL SINGLE POINT ENERGY     -1109.105351029065
FINAL SINGLE POINT ENERGY     -1109.105364767148
FINAL SINGLE POINT ENERGY     -1109.105387920565
FINAL SINGLE POINT ENERGY     -1109.105393798695
Dispersion correction            ... done
Dispersion correction           -0.060415970
FINAL SINGLE POINT ENERGY     -1109.105395498646
Dispersion correction            ... done
                    ***********************HURRAY********************
Dispersion correction           -0.060415806
FINAL SINGLE POINT ENERGY     -1109.105393533596

CARTESIAN COORDINATES (ANGSTROEM)
---------------------------------
  C      7.143878    0.433179    0.855539
  C      7.065803   -0.834867    0.303199
  C      5.846067   -1.287859   -0.166619
  C      4.734972   -0.453988   -0.070110
  C      3.408428   -0.895378   -0.565088
  C      2.281993   -0.105069   -0.368847
  C      1.044202   -0.532256   -0.837916
  C     -0.145811    0.323065   -0.665525
  C     -0.042598    1.663502   -1.036826
  C     -1.113514    2.528719   -0.936102
  C     -2.341892    2.082654   -0.449356
  C     -3.470796    2.952288   -0.346442
  C     -4.658211    2.507145    0.125017
  C     -4.822616    1.150571    0.542729
  C     -6.038772    0.671285    1.033155
  C     -6.169414   -0.648277    1.436943
  C     -5.091470   -1.516014    1.364682
  C     -3.858234   -1.077081    0.879322
  C     -2.720404   -1.935479    0.810906
  C     -1.533764   -1.499902    0.327338
  C     -1.363483   -0.159961   -0.147362
  C     -2.469778    0.728848   -0.046773
  C     -3.714798    0.267756    0.456743
  C      1.002325   -1.753245   -1.507231
  C      2.174845   -2.473816   -1.655210
  N      3.354794   -2.071269   -1.197731
  N      4.808544    0.768726    0.464208
  C      5.984888    1.192187    0.911277
  H      8.076592    0.830590    1.235045
  H      7.944655   -1.465547    0.238725
  H      5.742071   -2.270773   -0.604154
  H      2.378655    0.833085    0.159494
  H      0.898277    2.025016   -1.434644
  H     -1.008290    3.562388   -1.245382
  H     -3.352669    3.984061   -0.658519
  H     -5.509054    3.175556    0.196759
  H     -6.884222    1.347413    1.094858
  H     -7.121322   -1.003161    1.814200
  H     -5.194998   -2.546343    1.686128
  H     -2.821821   -2.954930    1.166575
  H     -0.689427   -2.175615    0.311972
  H      0.079826   -2.132896   -1.926612
  H      2.160015   -3.425572   -2.177528
  H      6.005828    2.191260    1.336160

 Multiplicity           Mult            ....    1
 Number of Electrons    NEL             ....  186
 Basis Dimension        Dim             .... 1512

ORBITAL ENERGIES
----------------

  NO   OCC          E(Eh)            E(eV)
   0   2.0000     -15.030145      -408.9910
   1   2.0000     -15.029324      -408.9687
   2   2.0000     -10.825717      -294.5827
   3   2.0000     -10.825146      -294.5672
   4   2.0000     -10.814535      -294.2785
   5   2.0000     -10.814500      -294.2775
   6   2.0000     -10.808586      -294.1166
   7   2.0000     -10.798352      -293.8381
   8   2.0000     -10.796338      -293.7833
   9   2.0000     -10.794723      -293.7394
  10   2.0000     -10.794123      -293.7230
  11   2.0000     -10.792360      -293.6751
  12   2.0000     -10.791939      -293.6636
  13   2.0000     -10.791105      -293.6409
  14   2.0000     -10.790386      -293.6213
  15   2.0000     -10.782217      -293.3991
  16   2.0000     -10.782160      -293.3975
  17   2.0000     -10.782071      -293.3951
  18   2.0000     -10.781797      -293.3876
  19   2.0000     -10.781627      -293.3830
  20   2.0000     -10.781349      -293.3754
  21   2.0000     -10.781032      -293.3668
  22   2.0000     -10.780454      -293.3511
  23   2.0000     -10.780444      -293.3508
  24   2.0000     -10.780041      -293.3398
  25   2.0000     -10.779958      -293.3376
  26   2.0000     -10.779816      -293.3337
  27   2.0000     -10.779023      -293.3121
  28   2.0000      -1.146639       -31.2016
  29   2.0000      -1.125034       -30.6137
  30   2.0000      -1.079219       -29.3670
  31   2.0000      -1.036236       -28.1974
  32   2.0000      -1.008164       -27.4335
  33   2.0000      -0.989078       -26.9142
  34   2.0000      -0.970368       -26.4050
  35   2.0000      -0.959020       -26.0963
  36   2.0000      -0.953478       -25.9455
  37   2.0000      -0.925740       -25.1907
  38   2.0000      -0.907788       -24.7022
  39   2.0000      -0.899084       -24.4653
  40   2.0000      -0.887984       -24.1633
  41   2.0000      -0.865331       -23.5469
  42   2.0000      -0.796771       -21.6812
  43   2.0000      -0.788017       -21.4430
  44   2.0000      -0.766097       -20.8465
  45   2.0000      -0.765285       -20.8245
  46   2.0000      -0.759031       -20.6543
  47   2.0000      -0.745485       -20.2857
  48   2.0000      -0.738717       -20.1015
  49   2.0000      -0.715353       -19.4657
  50   2.0000      -0.667426       -18.1616
  51   2.0000      -0.654592       -17.8124
  52   2.0000      -0.634023       -17.2526
  53   2.0000      -0.624574       -16.9955
  54   2.0000      -0.622874       -16.9493
  55   2.0000      -0.607948       -16.5431
  56   2.0000      -0.604239       -16.4422
  57   2.0000      -0.590951       -16.0806
  58   2.0000      -0.581041       -15.8109
  59   2.0000      -0.574401       -15.6303
  60   2.0000      -0.558981       -15.2106
  61   2.0000      -0.548675       -14.9302
  62   2.0000      -0.540772       -14.7151
  63   2.0000      -0.538999       -14.6669
  64   2.0000      -0.532092       -14.4790
  65   2.0000      -0.523702       -14.2507
  66   2.0000      -0.517206       -14.0739
  67   2.0000      -0.512960       -13.9583
  68   2.0000      -0.508873       -13.8471
  69   2.0000      -0.501100       -13.6356
  70   2.0000      -0.493151       -13.4193
  71   2.0000      -0.492401       -13.3989
  72   2.0000      -0.483271       -13.1505
  73   2.0000      -0.478021       -13.0076
  74   2.0000      -0.468373       -12.7451
  75   2.0000      -0.459152       -12.4942
  76   2.0000      -0.455354       -12.3908
  77   2.0000      -0.452643       -12.3171
  78   2.0000      -0.444130       -12.0854
  79   2.0000      -0.423908       -11.5351
  80   2.0000      -0.417162       -11.3516
  81   2.0000      -0.405816       -11.0428
  82   2.0000      -0.377019       -10.2592
  83   2.0000      -0.370315       -10.0768
  84   2.0000      -0.358382        -9.7521
  85   2.0000      -0.353255        -9.6125
  86   2.0000      -0.349642        -9.5142
  87   2.0000      -0.340257        -9.2589
  88   2.0000      -0.326509        -8.8848
  89   2.0000      -0.316305        -8.6071
  90   2.0000      -0.287151        -7.8138
  91   2.0000      -0.279302        -7.6002
  92   2.0000      -0.239695        -6.5224
  93   0.0000      -0.010109        -0.2751
  94   0.0000       0.007231         0.1968
  95   0.0000       0.024305         0.6614
  96   0.0000       0.025923         0.7054
  97   0.0000       0.028838         0.7847

MULLIKEN ATOMIC CHARGES
-----------------------
   0 C :   -0.190424
   1 C :   -0.603595
   2 C :   -0.509667
   3 C :    1.723295
   4 C :    0.962025
   5 C :   -0.513553
   6 C :    1.279701
   7 C :   -0.096087
   8 C :   -0.100759
   9 C :   -0.209997
  10 C :    1.130730
  11 C :   -0.792322
  12 C :   -0.671017
  13 C :    0.865753
  14 C :   -0.647163
  15 C :   -0.677411
  16 C :   -0.628862
  17 C :    0.575286
  18 C :   -1.189415
  19 C :   -0.506394
  20 C :    1.040251
  21 C :    0.251745
  22 C :    0.103719
  23 C :   -0.491234
  24 C :   -0.831404
  25 N :   -0.828083
  26 N :   -0.554024
  27 C :   -0.635393
  28 H :    0.202411
  29 H :    0.261716
  30 H :    0.153180
  31 H :    0.054615
  32 H :    0.132926
  33 H :    0.127929
  34 H :    0.162827
  35 H :    0.185848
  36 H :    0.145326
  37 H :    0.259265
  38 H :    0.137123
  39 H :    0.152175
  40 H :    0.100709
  41 H :    0.093734
  42 H :    0.302204
  43 H :    0.272311
Sum of atomic charges:   -0.0000000

LOEWDIN ATOMIC CHARGES
----------------------
   0 C :   -0.108288
   1 C :   -0.106300
   2 C :   -0.032423
   3 C :   -0.461938
   4 C :   -0.433863
   5 C :    0.068716
   6 C :   -0.318305
   7 C :   -0.230075
   8 C :    0.002387
   9 C :    0.003673
  10 C :   -0.290071
  11 C :   -0.010679
  12 C :   -0.011864
  13 C :   -0.299577
  14 C :   -0.031190
  15 C :   -0.097820
  16 C :   -0.029716
  17 C :   -0.299713
  18 C :   -0.001490
  19 C :    0.006350
  20 C :   -0.178882
  21 C :   -0.110638
  22 C :   -0.134747
  23 C :   -0.015390
  24 C :   -0.202143
  25 N :    0.253352
  26 N :    0.244404
  27 C :   -0.239705
  28 H :    0.170601
  29 H :    0.177805
  30 H :    0.197070
  31 H :    0.223438
  32 H :    0.206423
  33 H :    0.193839
  34 H :    0.193552
  35 H :    0.193235
  36 H :    0.191498
  37 H :    0.174224
  38 H :    0.191411
  39 H :    0.194266
  40 H :    0.209291
  41 H :    0.201699
  42 H :    0.175014
  43 H :    0.172570

  Mayer bond orders larger than 0.100000
B(  0-C ,  1-C ) :   1.2895 B(  0-C , 22-C ) :  -0.1111 B(  0-C , 26-N ) :  -0.1050
B(  0-C , 27-C ) :   1.0101 B(  0-C , 28-H ) :   1.0496 B(  1-C ,  2-C ) :   1.1823
B(  1-C ,  3-C ) :  -0.4420 B(  1-C ,  4-C ) :   0.2287 B(  1-C , 22-C ) :   0.1038
B(  1-C , 27-C ) :   0.2245 B(  1-C , 29-H ) :   0.9740 B(  2-C ,  3-C ) :   0.2781
B(  2-C ,  4-C ) :   0.1409 B(  2-C ,  7-C ) :   0.1460 B(  2-C , 26-N ) :   0.1395
B(  2-C , 30-H ) :   1.1568 B(  3-C ,  4-C ) :   0.3730 B(  3-C ,  6-C ) :   0.1810
B(  3-C ,  7-C ) :  -0.1498 B(  3-C , 25-N ) :  -0.1375 B(  3-C , 26-N ) :   0.4532
B(  3-C , 27-C ) :  -0.1178 B(  3-C , 30-H ) :  -0.1869 B(  4-C ,  5-C ) :   0.3898
B(  4-C ,  6-C ) :  -0.2382 B(  4-C , 13-C ) :  -0.1062 B(  4-C , 14-C ) :   0.1231
B(  4-C , 17-C ) :  -0.1506 B(  4-C , 24-C ) :   0.3192 B(  4-C , 26-N ) :   0.1051
B(  4-C , 27-C ) :   0.1859 B(  4-C , 31-H ) :  -0.2339 B(  5-C ,  6-C ) :   0.8286
B(  5-C ,  7-C ) :   0.5560 B(  5-C ,  8-C ) :  -0.1250 B(  5-C , 10-C ) :  -0.1823
B(  5-C , 19-C ) :   0.1183 B(  5-C , 23-C ) :  -0.1249 B(  5-C , 25-N ) :   0.3290
B(  5-C , 26-N ) :  -0.4096 B(  5-C , 27-C ) :  -0.1011 B(  5-C , 31-H ) :   1.3674
B(  6-C ,  9-C ) :   0.2205 B(  6-C , 10-C ) :   0.3044 B(  6-C , 17-C ) :   0.1135
B(  6-C , 19-C ) :  -0.4535 B(  6-C , 21-C ) :  -0.3923 B(  6-C , 22-C ) :   0.3280
B(  6-C , 23-C ) :   0.8687 B(  6-C , 24-C ) :  -0.2346 B(  6-C , 26-N ) :   0.1220
B(  6-C , 31-H ) :  -0.1616 B(  6-C , 41-H ) :  -0.1984 B(  7-C ,  8-C ) :   1.1512
B(  7-C , 10-C ) :  -0.3734 B(  7-C , 13-C ) :  -0.1130 B(  7-C , 16-C ) :  -0.1201
B(  7-C , 18-C ) :   0.1201 B(  7-C , 20-C ) :   0.6650 B(  7-C , 21-C ) :   1.0270
B(  7-C , 22-C ) :  -0.6416 B(  7-C , 23-C ) :   0.2139 B(  7-C , 24-C ) :   0.1369
B(  8-C ,  9-C ) :   0.9909 B(  8-C , 10-C ) :   0.3556 B(  8-C , 11-C ) :  -0.1942
B(  8-C , 12-C ) :  -0.1272 B(  8-C , 13-C ) :   0.1107 B(  8-C , 14-C ) :  -0.2057
B(  8-C , 15-C ) :   0.1345 B(  8-C , 17-C ) :  -0.2193 B(  8-C , 18-C ) :  -0.1729
B(  8-C , 19-C ) :  -0.2111 B(  8-C , 20-C ) :   0.1799 B(  8-C , 21-C ) :  -0.1962
B(  8-C , 22-C ) :  -0.2935 B(  8-C , 32-H ) :   1.0847 B(  8-C , 34-H ) :  -0.1142
B(  9-C , 10-C ) :   1.1184 B(  9-C , 11-C ) :  -0.2839 B(  9-C , 12-C ) :  -0.4396
B(  9-C , 14-C ) :   0.1284 B(  9-C , 16-C ) :   0.1647 B(  9-C , 17-C ) :  -0.5185
B(  9-C , 18-C ) :  -0.1198 B(  9-C , 19-C ) :  -0.1979 B(  9-C , 20-C ) :  -0.1664
B(  9-C , 21-C ) :  -0.2378 B(  9-C , 22-C ) :  -0.5111 B(  9-C , 32-H ) :  -0.1319
B(  9-C , 33-H ) :   1.1403 B(  9-C , 34-H ) :  -0.1745 B( 10-C , 11-C ) :   0.2224
B( 10-C , 12-C ) :  -0.4527 B( 10-C , 16-C ) :   0.1067 B( 10-C , 17-C ) :  -0.3336
B( 10-C , 19-C ) :   0.1473 B( 10-C , 21-C ) :  -0.5140 B( 10-C , 22-C ) :   0.2820
B( 10-C , 23-C ) :  -0.1120 B( 11-C , 12-C ) :   1.1527 B( 11-C , 14-C ) :  -0.1904
B( 11-C , 16-C ) :   0.1091 B( 11-C , 21-C ) :   0.8368 B( 11-C , 22-C ) :  -0.2973
B( 11-C , 34-H ) :   1.0972 B( 12-C , 13-C ) :   0.1236 B( 12-C , 14-C ) :  -0.4015
B( 12-C , 15-C ) :  -0.3271 B( 12-C , 17-C ) :   0.2420 B( 12-C , 20-C ) :   0.5435
B( 12-C , 21-C ) :   0.2359 B( 12-C , 22-C ) :   0.8345 B( 12-C , 35-H ) :   1.0842
B( 13-C , 14-C ) :   0.8270 B( 13-C , 15-C ) :   0.1002 B( 13-C , 17-C ) :   0.4842
B( 13-C , 19-C ) :  -0.1370 B( 13-C , 20-C ) :  -0.1125 B( 13-C , 21-C ) :  -0.1940
B( 13-C , 22-C ) :  -0.3200 B( 14-C , 15-C ) :   1.1719 B( 14-C , 16-C ) :   0.1218
B( 14-C , 19-C ) :   0.1319 B( 14-C , 20-C ) :   0.1732 B( 14-C , 21-C ) :   0.2784
B( 14-C , 22-C ) :  -0.3593 B( 14-C , 36-H ) :   1.1153 B( 15-C , 16-C ) :   1.1052
B( 15-C , 17-C ) :  -0.1950 B( 15-C , 18-C ) :  -0.3564 B( 15-C , 19-C ) :  -0.1083
B( 15-C , 21-C ) :   0.4793 B( 15-C , 37-H ) :   0.9611 B( 16-C , 17-C ) :   0.5372
B( 16-C , 18-C ) :  -0.4441 B( 16-C , 19-C ) :  -0.3058 B( 16-C , 22-C ) :   0.2338
B( 16-C , 38-H ) :   1.1264 B( 17-C , 18-C ) :   0.6950 B( 17-C , 19-C ) :   0.4453
B( 17-C , 21-C ) :   0.3646 B( 17-C , 22-C ) :   0.1005 B( 17-C , 38-H ) :  -0.1037
B( 18-C , 19-C ) :   0.8174 B( 18-C , 20-C ) :  -0.5482 B( 18-C , 21-C ) :   0.4131
B( 18-C , 22-C ) :   1.1887 B( 18-C , 23-C ) :   0.1329 B( 18-C , 38-H ) :  -0.1300
B( 18-C , 39-H ) :   1.1608 B( 18-C , 40-H ) :   0.1613 B( 19-C , 20-C ) :  -0.2617
B( 19-C , 22-C ) :  -0.5287 B( 19-C , 23-C ) :   0.4790 B( 19-C , 38-H ) :  -0.1073
B( 19-C , 39-H ) :  -0.2309 B( 19-C , 40-H ) :   1.2075 B( 20-C , 22-C ) :   0.7009
B( 20-C , 23-C ) :  -0.1939 B( 20-C , 24-C ) :  -0.1332 B( 20-C , 40-H ) :  -0.2598
B( 21-C , 22-C ) :  -1.3128 B( 21-C , 34-H ) :   0.1688 B( 22-C , 23-C ) :  -0.1246
B( 22-C , 27-C ) :   0.1080 B( 22-C , 38-H ) :   0.1362 B( 23-C , 24-C ) :   0.7362
B( 23-C , 41-H ) :   1.2300 B( 24-C , 25-N ) :   1.4007 B( 24-C , 42-H ) :   0.9116
B( 26-N , 27-C ) :   1.2810 B( 27-C , 43-H ) :   0.9555

MP2 TOTAL ENERGY:    -1109.216513494 Eh

-----------------------------------------------------------------------------
         ABSORPTION SPECTRUM VIA TRANSITION ELECTRIC DIPOLE MOMENTS
-----------------------------------------------------------------------------
State   Energy    Wavelength  fosc         T2        TX        TY        TZ
        (cm-1)      (nm)                 (au**2)    (au)      (au)      (au)
-----------------------------------------------------------------------------
   1   30014.0    333.2   0.939788122  10.30816  -3.05866  -0.35625   0.90876
   2   30331.8    329.7   0.003295104   0.03576  -0.09386  -0.14896   0.06903
   3   34746.1    287.8   0.045824538   0.43418   0.36178  -0.54659   0.06731
   4   37774.2    264.7   0.707753389   6.16825  -2.33173  -0.46087  -0.72033
   5   37448.2    267.0   0.037969465   0.33379  -0.26669  -0.47784  -0.18531
   6   39907.5    250.6   0.101056899   0.83366   0.65952  -0.62253   0.10560
   7   38186.9    261.9   0.450916113   3.88738   1.57193  -1.17565   0.18516
   8   38146.4    262.1   0.510514968   4.40586  -0.25266   2.04905  -0.37869
   9   37897.5    263.9   0.012916732   0.11221  -0.25045   0.10921   0.19379
  10   38819.4    257.6   0.037269748   0.31607   0.26747   0.47490  -0.13784

Dispersion correction           -0.041273655
FINAL SINGLE POINT ENERGY     -1107.252212155421

DIPOLE MOMENT
-------------
                                X             Y             Z
Electronic contribution:     -0.58036       0.00006      -1.23156
Nuclear contribution   :      0.34569       0.06670       1.37235
                        -----------------------------------------
Total Dipole Moment    :     -0.23467       0.06675       0.14079
                        -----------------------------------------
Magnitude (a.u.)       :      0.28169
Magnitude (Debye)      :      0.71601

Rotational constants in cm-1:     0.016483     0.002671     0.002459
Rotational constants in MHz :   494.160005    80.085307    73.712612

                             ****ORCA TERMINATED NORMALLY****
TOTAL RUN TIME: 0 days 20 hours 53 minutes 55 seconds 39 msec
