                         Program Version 5.0.2 -  RELEASE  -
|  1> ! pbe0 aug-cc-PVTZ RIJCOSX Opt
|  2> %maxcore 4000
|  3> %basis
|  4>  AuxJ "aug-cc-PVTZ/JK"
|  5>  AuxC "aug-cc-PVTZ/C"
|  6>  newGTO H "cc-PVTZ" end
|  7>  newAuxJGTO H "cc-PVTZ/JK" end
|  8>  newAuxCGTO H "cc-PVTZ/C" end
|  9> end
| 10> %cpcm
| 11>  SMD true
| 12>  SMDsolvent "ethanol"
| 13> end
| 14> %pal nprocs 4 end
| 15> * xyz 0 1
| 16> C          7.12240        0.31380        0.93620
| 17> C          7.04720       -0.89500        0.26000
| 18> C          5.82560       -1.30360       -0.24170
| 19> C          4.71310       -0.48310       -0.04800
| 20> C          3.39440       -0.87590       -0.56410
| 21> C          2.28230       -0.06300       -0.35560
| 22> C          1.04600       -0.46030       -0.85190
| 23> C         -0.14230        0.38970       -0.67970
| 24> C         -0.06840        1.71650       -1.09430
| 25> C         -1.16310        2.55170       -1.02380
| 26> C         -2.38110        2.08790       -0.52440
| 27> C         -3.53690        2.91930       -0.45830
| 28> C         -4.70800        2.45620        0.03560
| 29> C         -4.82820        1.11880        0.51500
| 30> C         -6.02550        0.62130        1.03210
| 31> C         -6.11000       -0.67930        1.49390
| 32> C         -5.00690       -1.51200        1.45450
| 33> C         -3.79000       -1.05750        0.94430
| 34> C         -2.62640       -1.87890        0.90620
| 35> C         -1.45830       -1.42460        0.39620
| 36> C         -1.33990       -0.10470       -0.13390
| 37> C         -2.46940        0.75050       -0.06460
| 38> C         -3.69360        0.27110        0.46340
| 39> C          0.98770       -1.66310       -1.55740
| 40> C          2.15180       -2.39780       -1.71110
| 41> N          3.32310       -2.02770       -1.23060
| 42> N          4.78920        0.67740        0.60100
| 43> C          5.95910        1.05720        1.07510
| 44> H          8.05560        0.67050        1.34400
| 45> H          7.92850       -1.50670        0.12780
| 46> H          5.70410       -2.23170       -0.77590
| 47> H          2.39840        0.85350        0.20020
| 48> H          0.86310        2.08330       -1.50140
| 49> H         -1.08620        3.57430       -1.36450
| 50> H         -3.45120        3.93570       -0.81640
| 51> H         -5.58000        3.09330        0.08060
| 52> H         -6.89140        1.26690        1.06840
| 53> H         -7.04520       -1.04710        1.89090
| 54> H         -5.07850       -2.52610        1.82120
| 55> H         -2.69730       -2.88080        1.30590
| 56> H         -0.58400       -2.05870        0.39990
| 57> H          0.05890       -2.00290       -1.99000
| 58> H          2.14800       -3.33640       -2.25140
| 59> H          5.96260        2.00800        1.59360
| 60> *
| 61>
| 62>
| 63> $new_job
| 64> ! pbe0 aug-cc-PVTZ RIJCOSX SP
| 65> %maxcore 4000
| 66> %basis
| 67>  AuxJ "aug-cc-PVTZ/JK"
| 68>  AuxC "aug-cc-PVTZ/C"
| 69>  newGTO H "cc-PVTZ" end
| 70>  newAuxJGTO H "cc-PVTZ/JK" end
| 71>  newAuxCGTO H "cc-PVTZ/C" end
| 72> end
| 73> %cpcm
| 74>  SMD true
| 75>  SMDsolvent "ethanol"
| 76> end
| 77> %pal nprocs 4 end
| 78> %tddft
| 79>  nroots 10
| 80>  maxdim 7
| 81> end
| 82> * xyzfile 0 1
| 83>
| 84>                          ****END OF INPUT****
 Total Charge           Charge          ....    0
 Multiplicity           Mult            ....    1
 Number of Electrons    NEL             ....  186
FINAL SINGLE POINT ENERGY     -1109.044097979973
FINAL SINGLE POINT ENERGY     -1109.044956084484
FINAL SINGLE POINT ENERGY     -1109.044989168912
FINAL SINGLE POINT ENERGY     -1109.044985206009
FINAL SINGLE POINT ENERGY     -1109.044957877565
FINAL SINGLE POINT ENERGY     -1109.044972715475
FINAL SINGLE POINT ENERGY     -1109.044986643418
FINAL SINGLE POINT ENERGY     -1109.045015012276
FINAL SINGLE POINT ENERGY     -1109.044996818944
                    ***********************HURRAY********************
FINAL SINGLE POINT ENERGY     -1109.044999994571

CARTESIAN COORDINATES (ANGSTROEM)
---------------------------------
  C      7.143252    0.436343    0.869199
  C      7.069396   -0.830055    0.312345
  C      5.852107   -1.283879   -0.163772
  C      4.738294   -0.452603   -0.068935
  C      3.412736   -0.895453   -0.570472
  C      2.282194   -0.109857   -0.374166
  C      1.045456   -0.538506   -0.847482
  C     -0.148694    0.315299   -0.675128
  C     -0.046817    1.655716   -1.049005
  C     -1.116682    2.522587   -0.947037
  C     -2.344242    2.079751   -0.454827
  C     -3.471119    2.952336   -0.347988
  C     -4.657415    2.510792    0.130078
  C     -4.823107    1.154682    0.550313
  C     -6.038366    0.678801    1.047437
  C     -6.170878   -0.640319    1.452743
  C     -5.095625   -1.511132    1.375218
  C     -3.863138   -1.075719    0.883606
  C     -2.728003   -1.937571    0.808985
  C     -1.541854   -1.505469    0.320187
  C     -1.367615   -0.165281   -0.154193
  C     -2.472587    0.726297   -0.050088
  C     -3.717482    0.268709    0.459507
  C      1.010713   -1.757540   -1.521647
  C      2.186831   -2.472748   -1.670510
  N      3.364497   -2.068550   -1.208850
  N      4.808308    0.768426    0.469994
  C      5.982308    1.192655    0.922847
  H      8.073816    0.834432    1.253715
  H      7.949663   -1.459208    0.249144
  H      5.753258   -2.266014   -0.604648
  H      2.374955    0.826510    0.158514
  H      0.892783    2.017592   -1.450022
  H     -1.010071    3.555587   -1.258861
  H     -3.352420    3.983645   -0.662136
  H     -5.506178    3.181867    0.204869
  H     -6.882061    1.357089    1.113081
  H     -7.122065   -0.992344    1.835038
  H     -5.200931   -2.541226    1.697562
  H     -2.830552   -2.957460    1.163797
  H     -0.700878   -2.185639    0.300426
  H      0.091507   -2.140873   -1.945461
  H      2.176343   -3.422199   -2.197608
  H      5.999664    2.190530    1.351231

 Multiplicity           Mult            ....    1
 Number of Electrons    NEL             ....  186
 Basis Dimension        Dim             .... 1512

ORBITAL ENERGIES
----------------

  NO   OCC          E(Eh)            E(eV)
   0   2.0000     -14.389381      -391.5550
   1   2.0000     -14.388835      -391.5401
   2   2.0000     -10.273377      -279.5528
   3   2.0000     -10.273014      -279.5429
   4   2.0000     -10.261629      -279.2331
   5   2.0000     -10.261419      -279.2274
   6   2.0000     -10.259382      -279.1720
   7   2.0000     -10.250461      -278.9292
   8   2.0000     -10.249160      -278.8938
   9   2.0000     -10.246697      -278.8268
  10   2.0000     -10.244384      -278.7639
  11   2.0000     -10.244294      -278.7614
  12   2.0000     -10.243757      -278.7468
  13   2.0000     -10.243362      -278.7360
  14   2.0000     -10.242621      -278.7159
  15   2.0000     -10.235390      -278.5191
  16   2.0000     -10.234346      -278.4907
  17   2.0000     -10.234251      -278.4881
  18   2.0000     -10.233804      -278.4760
  19   2.0000     -10.233239      -278.4606
  20   2.0000     -10.232564      -278.4422
  21   2.0000     -10.232508      -278.4407
  22   2.0000     -10.231623      -278.4166
  23   2.0000     -10.231593      -278.4158
  24   2.0000     -10.231288      -278.4075
  25   2.0000     -10.231236      -278.4061
  26   2.0000     -10.230937      -278.3979
  27   2.0000     -10.230297      -278.3805
  28   2.0000      -0.992062       -26.9954
  29   2.0000      -0.973093       -26.4792
  30   2.0000      -0.931073       -25.3358
  31   2.0000      -0.892512       -24.2865
  32   2.0000      -0.867051       -23.5937
  33   2.0000      -0.850251       -23.1365
  34   2.0000      -0.832740       -22.6600
  35   2.0000      -0.823543       -22.4097
  36   2.0000      -0.818580       -22.2747
  37   2.0000      -0.793061       -21.5803
  38   2.0000      -0.776398       -21.1269
  39   2.0000      -0.769413       -20.9368
  40   2.0000      -0.759227       -20.6596
  41   2.0000      -0.739343       -20.1185
  42   2.0000      -0.681262       -18.5381
  43   2.0000      -0.674543       -18.3552
  44   2.0000      -0.654226       -17.8024
  45   2.0000      -0.653706       -17.7882
  46   2.0000      -0.649170       -17.6648
  47   2.0000      -0.636755       -17.3270
  48   2.0000      -0.630457       -17.1556
  49   2.0000      -0.609948       -16.5975
  50   2.0000      -0.566495       -15.4151
  51   2.0000      -0.559123       -15.2145
  52   2.0000      -0.539501       -14.6806
  53   2.0000      -0.532198       -14.4818
  54   2.0000      -0.530143       -14.4259
  55   2.0000      -0.516998       -14.0682
  56   2.0000      -0.513188       -13.9646
  57   2.0000      -0.500204       -13.6112
  58   2.0000      -0.490527       -13.3479
  59   2.0000      -0.485549       -13.2125
  60   2.0000      -0.471127       -12.8200
  61   2.0000      -0.460694       -12.5361
  62   2.0000      -0.457114       -12.4387
  63   2.0000      -0.452679       -12.3180
  64   2.0000      -0.447820       -12.1858
  65   2.0000      -0.444558       -12.0970
  66   2.0000      -0.440316       -11.9816
  67   2.0000      -0.437625       -11.9084
  68   2.0000      -0.431130       -11.7317
  69   2.0000      -0.415873       -11.3165
  70   2.0000      -0.412557       -11.2262
  71   2.0000      -0.410548       -11.1716
  72   2.0000      -0.408837       -11.1250
  73   2.0000      -0.402194       -10.9443
  74   2.0000      -0.391091       -10.6421
  75   2.0000      -0.386943       -10.5292
  76   2.0000      -0.380433       -10.3521
  77   2.0000      -0.377565       -10.2741
  78   2.0000      -0.369952       -10.0669
  79   2.0000      -0.365806        -9.9541
  80   2.0000      -0.342505        -9.3200
  81   2.0000      -0.333675        -9.0798
  82   2.0000      -0.326233        -8.8773
  83   2.0000      -0.314267        -8.5516
  84   2.0000      -0.308826        -8.4036
  85   2.0000      -0.299132        -8.1398
  86   2.0000      -0.289977        -7.8907
  87   2.0000      -0.287225        -7.8158
  88   2.0000      -0.276268        -7.5176
  89   2.0000      -0.272388        -7.4120
  90   2.0000      -0.254729        -6.9315
  91   2.0000      -0.250139        -6.8066
  92   2.0000      -0.214858        -5.8466
  93   0.0000      -0.070763        -1.9256
  94   0.0000      -0.057144        -1.5550
  95   0.0000      -0.037296        -1.0149
  96   0.0000      -0.032628        -0.8879
  97   0.0000      -0.017220        -0.4686

MULLIKEN ATOMIC CHARGES
-----------------------
   0 C :   -0.193496
   1 C :   -0.497015
   2 C :   -0.534287
   3 C :    1.555879
   4 C :    1.016101
   5 C :   -0.563864
   6 C :    1.048505
   7 C :    0.430570
   8 C :   -0.319578
   9 C :   -0.265123
  10 C :    1.001601
  11 C :   -0.561928
  12 C :   -0.564963
  13 C :    0.764624
  14 C :   -0.619226
  15 C :   -0.602602
  16 C :   -0.660737
  17 C :    0.423255
  18 C :   -1.083774
  19 C :   -0.462214
  20 C :    0.699105
  21 C :    0.149064
  22 C :    0.017387
  23 C :   -0.524714
  24 C :   -0.682835
  25 N :   -0.864834
  26 N :   -0.625111
  27 C :   -0.567470
  28 H :    0.225094
  29 H :    0.272838
  30 H :    0.161595
  31 H :    0.071813
  32 H :    0.185127
  33 H :    0.162643
  34 H :    0.184525
  35 H :    0.203385
  36 H :    0.176634
  37 H :    0.275377
  38 H :    0.168546
  39 H :    0.184470
  40 H :    0.125661
  41 H :    0.135139
  42 H :    0.292388
  43 H :    0.262446
Sum of atomic charges:   -0.0000000

LOEWDIN ATOMIC CHARGES
----------------------
   0 C :   -0.108954
   1 C :   -0.108472
   2 C :   -0.035559
   3 C :   -0.463317
   4 C :   -0.435208
   5 C :    0.064673
   6 C :   -0.318577
   7 C :   -0.231404
   8 C :    0.000335
   9 C :    0.001654
  10 C :   -0.291000
  11 C :   -0.010906
  12 C :   -0.012279
  13 C :   -0.299762
  14 C :   -0.032593
  15 C :   -0.096968
  16 C :   -0.031230
  17 C :   -0.300399
  18 C :   -0.002378
  19 C :    0.006482
  20 C :   -0.179976
  21 C :   -0.112097
  22 C :   -0.136049
  23 C :   -0.016700
  24 C :   -0.205048
  25 N :    0.260139
  26 N :    0.251108
  27 C :   -0.242050
  28 H :    0.172165
  29 H :    0.178244
  30 H :    0.198263
  31 H :    0.225038
  32 H :    0.208190
  33 H :    0.195457
  34 H :    0.195037
  35 H :    0.194601
  36 H :    0.193024
  37 H :    0.175567
  38 H :    0.192888
  39 H :    0.195721
  40 H :    0.211075
  41 H :    0.203399
  42 H :    0.175245
  43 H :    0.172619

  Mayer bond orders larger than 0.100000
B(  0-C ,  1-C ) :   1.3725 B(  0-C , 27-C ) :   1.1453 B(  0-C , 28-H ) :   0.9637
B(  1-C ,  2-C ) :   1.3096 B(  1-C ,  3-C ) :  -0.2790 B(  1-C ,  4-C ) :   0.1393
B(  1-C , 27-C ) :   0.1670 B(  1-C , 29-H ) :   0.8898 B(  2-C ,  3-C ) :   0.5005
B(  2-C , 26-N ) :   0.1424 B(  2-C , 30-H ) :   1.0798 B(  3-C ,  4-C ) :   0.5117
B(  3-C ,  6-C ) :   0.1449 B(  3-C , 26-N ) :   0.3786 B(  4-C ,  5-C ) :   0.5881
B(  4-C ,  6-C ) :  -0.2020 B(  4-C , 24-C ) :   0.2381 B(  4-C , 25-N ) :  -0.1036
B(  4-C , 26-N ) :   0.1795 B(  4-C , 27-C ) :   0.1165 B(  4-C , 31-H ) :  -0.1784
B(  5-C ,  6-C ) :   0.9512 B(  5-C ,  7-C ) :   0.4193 B(  5-C , 23-C ) :  -0.1031
B(  5-C , 25-N ) :   0.2674 B(  5-C , 26-N ) :  -0.4489 B(  5-C , 31-H ) :   1.2808
B(  6-C ,  9-C ) :   0.2302 B(  6-C , 10-C ) :   0.1207 B(  6-C , 19-C ) :  -0.1004
B(  6-C , 21-C ) :  -0.2005 B(  6-C , 22-C ) :   0.1096 B(  6-C , 23-C ) :   1.1406
B(  6-C , 24-C ) :  -0.2253 B(  6-C , 26-N ) :   0.1348 B(  7-C ,  8-C ) :   1.2137
B(  7-C , 10-C ) :  -0.3512 B(  7-C , 13-C ) :  -0.1128 B(  7-C , 17-C ) :  -0.1346
B(  7-C , 19-C ) :  -0.2763 B(  7-C , 20-C ) :   0.7512 B(  7-C , 21-C ) :   0.7620
B(  7-C , 22-C ) :  -0.1681 B(  7-C , 23-C ) :   0.1158 B(  7-C , 40-H ) :  -0.1118
B(  8-C ,  9-C ) :   1.0510 B(  8-C , 10-C ) :   0.2742 B(  8-C , 11-C ) :  -0.2093
B(  8-C , 15-C ) :   0.1063 B(  8-C , 17-C ) :  -0.1285 B(  8-C , 19-C ) :  -0.1276
B(  8-C , 21-C ) :  -0.2869 B(  8-C , 22-C ) :  -0.1045 B(  8-C , 32-H ) :   0.9618
B(  9-C , 10-C ) :   0.9581 B(  9-C , 11-C ) :  -0.1156 B(  9-C , 12-C ) :  -0.3577
B(  9-C , 17-C ) :  -0.2770 B(  9-C , 19-C ) :  -0.1506 B(  9-C , 20-C ) :  -0.1260
B(  9-C , 22-C ) :  -0.4198 B(  9-C , 33-H ) :   1.0354 B(  9-C , 34-H ) :  -0.1204
B( 10-C , 11-C ) :   0.4710 B( 10-C , 12-C ) :  -0.3508 B( 10-C , 13-C ) :  -0.2189
B( 10-C , 17-C ) :  -0.1327 B( 10-C , 19-C ) :   0.1554 B( 10-C , 20-C ) :  -0.2436
B( 10-C , 21-C ) :   0.1512 B( 11-C , 12-C ) :   1.2860 B( 11-C , 14-C ) :  -0.1700
B( 11-C , 20-C ) :  -0.1293 B( 11-C , 21-C ) :   0.6468 B( 11-C , 22-C ) :  -0.3752
B( 11-C , 34-H ) :   0.9919 B( 12-C , 13-C ) :   0.4535 B( 12-C , 14-C ) :  -0.2781
B( 12-C , 15-C ) :  -0.2720 B( 12-C , 17-C ) :   0.2544 B( 12-C , 20-C ) :   0.3711
B( 12-C , 22-C ) :   0.5257 B( 12-C , 35-H ) :   0.9726 B( 13-C , 14-C ) :   0.8642
B( 13-C , 17-C ) :   0.3501 B( 13-C , 21-C ) :  -0.3033 B( 13-C , 22-C ) :   0.1618
B( 14-C , 15-C ) :   1.2436 B( 14-C , 16-C ) :   0.1417 B( 14-C , 20-C ) :   0.1502
B( 14-C , 21-C ) :   0.1274 B( 14-C , 22-C ) :  -0.1060 B( 14-C , 36-H ) :   1.0131
B( 15-C , 16-C ) :   1.2461 B( 15-C , 18-C ) :  -0.2084 B( 15-C , 21-C ) :   0.3306
B( 15-C , 37-H ) :   0.8753 B( 16-C , 17-C ) :   0.7268 B( 16-C , 18-C ) :  -0.2578
B( 16-C , 19-C ) :  -0.1627 B( 16-C , 22-C ) :   0.1165 B( 16-C , 38-H ) :   1.0144
B( 17-C , 18-C ) :   0.7011 B( 17-C , 19-C ) :   0.2755 B( 17-C , 20-C ) :  -0.2965
B( 17-C , 21-C ) :   0.2715 B( 17-C , 22-C ) :   0.4962 B( 18-C , 19-C ) :   1.0699
B( 18-C , 20-C ) :  -0.2850 B( 18-C , 21-C ) :   0.1788 B( 18-C , 22-C ) :   0.9539
B( 18-C , 39-H ) :   1.0229 B( 18-C , 40-H ) :   0.1807 B( 19-C , 20-C ) :   0.5113
B( 19-C , 21-C ) :  -0.1698 B( 19-C , 22-C ) :  -0.6492 B( 19-C , 23-C ) :   0.2952
B( 19-C , 39-H ) :  -0.1401 B( 19-C , 40-H ) :   1.0492 B( 20-C , 21-C ) :   0.2855
B( 20-C , 22-C ) :   0.6586 B( 20-C , 23-C ) :  -0.1578 B( 21-C , 22-C ) :  -0.6348
B( 23-C , 24-C ) :   1.0123 B( 23-C , 41-H ) :   1.1069 B( 24-C , 25-N ) :   1.5391
B( 24-C , 42-H ) :   0.8649 B( 26-N , 27-C ) :   1.4545 B( 27-C , 43-H ) :   0.9160

-----------------------------------------------------------------------------
         ABSORPTION SPECTRUM VIA TRANSITION ELECTRIC DIPOLE MOMENTS
-----------------------------------------------------------------------------
State   Energy    Wavelength  fosc         T2        TX        TY        TZ
        (cm-1)      (nm)                 (au**2)    (au)      (au)      (au)
-----------------------------------------------------------------------------
   1   28154.4    355.2   0.630140488   7.36829   2.61734   0.02914  -0.71901
   2   30236.6    330.7   0.203182763   2.21223   1.38246   0.35339  -0.41968
   3   30759.0    325.1   0.054492312   0.58323   0.69787   0.23420  -0.20335
   4   34547.8    289.5   0.040641228   0.38728   0.27435   0.54624  -0.11676
   5   35165.4    284.4   0.014749945   0.13809   0.23471   0.26943  -0.10200
   6   35390.1    282.6   0.109801025   1.02141   0.87213   0.29254   0.41860
   7   35903.1    278.5   0.013365225   0.12255  -0.11702   0.30915  -0.11527
   8   36971.1    270.5   0.348012651   3.09890  -0.94824   1.44906  -0.31619
   9   37598.3    266.0   0.185278939   1.62231   1.22761   0.00681   0.33948
  10   37883.1    264.0   0.420373564   3.65313  -1.85732   0.21302  -0.39766

FINAL SINGLE POINT ENERGY     -1108.916719469260

DIPOLE MOMENT
-------------
                                X             Y             Z
Electronic contribution:     -0.60765      -0.00730      -1.24667
Nuclear contribution   :      0.34876       0.07738       1.39459
                        -----------------------------------------
Total Dipole Moment    :     -0.25889       0.07008       0.14792
                        -----------------------------------------
Magnitude (a.u.)       :      0.30630
Magnitude (Debye)      :      0.77854

Rotational constants in cm-1:     0.016419     0.002666     0.002457
Rotational constants in MHz :   492.230624    79.935682    73.648919

                             ****ORCA TERMINATED NORMALLY****
TOTAL RUN TIME: 0 days 10 hours 25 minutes 33 seconds 356 msec
