                         Program Version 5.0.2 -  RELEASE  -
|  1> ! wb97x-d3 aug-cc-PVTZ RIJCOSX Opt
|  2> %maxcore 4000
|  3> %basis
|  4>  AuxJ "aug-cc-PVTZ/JK"
|  5>  AuxC "aug-cc-PVTZ/C"
|  6>  newGTO H "cc-PVTZ" end
|  7>  newAuxJGTO H "cc-PVTZ/JK" end
|  8>  newAuxCGTO H "cc-PVTZ/C" end
|  9> end
| 10> %cpcm
| 11>  SMD true
| 12>  SMDsolvent "ethanol"
| 13> end
| 14> %pal nprocs 4 end
| 15> * xyz 0 1
| 16> C          7.12240        0.31380        0.93620
| 17> C          7.04720       -0.89500        0.26000
| 18> C          5.82560       -1.30360       -0.24170
| 19> C          4.71310       -0.48310       -0.04800
| 20> C          3.39440       -0.87590       -0.56410
| 21> C          2.28230       -0.06300       -0.35560
| 22> C          1.04600       -0.46030       -0.85190
| 23> C         -0.14230        0.38970       -0.67970
| 24> C         -0.06840        1.71650       -1.09430
| 25> C         -1.16310        2.55170       -1.02380
| 26> C         -2.38110        2.08790       -0.52440
| 27> C         -3.53690        2.91930       -0.45830
| 28> C         -4.70800        2.45620        0.03560
| 29> C         -4.82820        1.11880        0.51500
| 30> C         -6.02550        0.62130        1.03210
| 31> C         -6.11000       -0.67930        1.49390
| 32> C         -5.00690       -1.51200        1.45450
| 33> C         -3.79000       -1.05750        0.94430
| 34> C         -2.62640       -1.87890        0.90620
| 35> C         -1.45830       -1.42460        0.39620
| 36> C         -1.33990       -0.10470       -0.13390
| 37> C         -2.46940        0.75050       -0.06460
| 38> C         -3.69360        0.27110        0.46340
| 39> C          0.98770       -1.66310       -1.55740
| 40> C          2.15180       -2.39780       -1.71110
| 41> N          3.32310       -2.02770       -1.23060
| 42> N          4.78920        0.67740        0.60100
| 43> C          5.95910        1.05720        1.07510
| 44> H          8.05560        0.67050        1.34400
| 45> H          7.92850       -1.50670        0.12780
| 46> H          5.70410       -2.23170       -0.77590
| 47> H          2.39840        0.85350        0.20020
| 48> H          0.86310        2.08330       -1.50140
| 49> H         -1.08620        3.57430       -1.36450
| 50> H         -3.45120        3.93570       -0.81640
| 51> H         -5.58000        3.09330        0.08060
| 52> H         -6.89140        1.26690        1.06840
| 53> H         -7.04520       -1.04710        1.89090
| 54> H         -5.07850       -2.52610        1.82120
| 55> H         -2.69730       -2.88080        1.30590
| 56> H         -0.58400       -2.05870        0.39990
| 57> H          0.05890       -2.00290       -1.99000
| 58> H          2.14800       -3.33640       -2.25140
| 59> H          5.96260        2.00800        1.59360
| 60> *
| 61>
| 62>
| 63> $new_job
| 64> ! wb97x-d3 aug-cc-PVTZ RIJCOSX SP
| 65> %maxcore 4000
| 66> %basis
| 67>  AuxJ "aug-cc-PVTZ/JK"
| 68>  AuxC "aug-cc-PVTZ/C"
| 69>  newGTO H "cc-PVTZ" end
| 70>  newAuxJGTO H "cc-PVTZ/JK" end
| 71>  newAuxCGTO H "cc-PVTZ/C" end
| 72> end
| 73> %cpcm
| 74>  SMD true
| 75>  SMDsolvent "ethanol"
| 76> end
| 77> %pal nprocs 4 end
| 78> %tddft
| 79>  nroots 10
| 80>  maxdim 7
| 81> end
| 82> * xyzfile 0 1
| 83>
| 84>                          ****END OF INPUT****
 Total Charge           Charge          ....    0
 Multiplicity           Mult            ....    1
 Number of Electrons    NEL             ....  186
Dispersion correction           -0.019531901
FINAL SINGLE POINT ENERGY     -1110.018923730421
Dispersion correction            ... done
Dispersion correction           -0.019461965
FINAL SINGLE POINT ENERGY     -1110.020224710022
Dispersion correction            ... done
Dispersion correction           -0.019453455
FINAL SINGLE POINT ENERGY     -1110.020447407809
Dispersion correction            ... done
FINAL SINGLE POINT ENERGY     -1110.020411865322
FINAL SINGLE POINT ENERGY     -1110.020355369147
FINAL SINGLE POINT ENERGY     -1110.020228164500
FINAL SINGLE POINT ENERGY     -1110.020202968484
FINAL SINGLE POINT ENERGY     -1110.019941076463
FINAL SINGLE POINT ENERGY     -1110.020245623317
FINAL SINGLE POINT ENERGY     -1110.020369838737
FINAL SINGLE POINT ENERGY     -1110.020397857225
FINAL SINGLE POINT ENERGY     -1110.020426207399
FINAL SINGLE POINT ENERGY     -1110.020396813755
FINAL SINGLE POINT ENERGY     -1110.020434639280
FINAL SINGLE POINT ENERGY     -1110.020422276730
FINAL SINGLE POINT ENERGY     -1110.020429078312
Dispersion correction           -0.019471129
FINAL SINGLE POINT ENERGY     -1110.020443066048
Dispersion correction            ... done
Dispersion correction           -0.019469967
FINAL SINGLE POINT ENERGY     -1110.020446696097
Dispersion correction            ... done
                    ***********************HURRAY********************
Dispersion correction           -0.019470660
FINAL SINGLE POINT ENERGY     -1110.020437852062

CARTESIAN COORDINATES (ANGSTROEM)
---------------------------------
  C      7.125346    0.387795    0.926429
  C      7.027852   -0.898801    0.424203
  C      5.814021   -1.333716   -0.076796
  C      4.730519   -0.461782   -0.063559
  C      3.402959   -0.881629   -0.601734
  C      2.272056   -0.107087   -0.376935
  C      1.046091   -0.511588   -0.890048
  C     -0.155702    0.340574   -0.705434
  C     -0.073959    1.669739   -1.114412
  C     -1.151027    2.526701   -1.005663
  C     -2.359547    2.078307   -0.479559
  C     -3.502216    2.944872   -0.370102
  C     -4.673112    2.498205    0.122266
  C     -4.819767    1.138178    0.565968
  C     -6.023986    0.653652    1.075160
  C     -6.134724   -0.660760    1.500492
  C     -5.045663   -1.514299    1.433699
  C     -3.825498   -1.065873    0.929601
  C     -2.671778   -1.918872    0.860243
  C     -1.502795   -1.485706    0.349923
  C     -1.353692   -0.142512   -0.152347
  C     -2.464553    0.735588   -0.048343
  C     -3.705195    0.268898    0.482409
  C      1.013995   -1.694266   -1.621269
  C      2.189363   -2.401824   -1.794745
  N      3.362351   -2.017311   -1.301382
  N      4.820955    0.777162    0.425365
  C      5.992093    1.183639    0.904923
  H      8.054278    0.771206    1.326055
  H      7.887173   -1.557367    0.423454
  H      5.699362   -2.330619   -0.475901
  H      2.353085    0.802358    0.200801
  H      0.853358    2.033377   -1.539378
  H     -1.062835    3.554076   -1.337545
  H     -3.397780    3.971628   -0.700084
  H     -5.529475    3.158050    0.195036
  H     -6.878226    1.317670    1.133449
  H     -7.078031   -1.022994    1.889506
  H     -5.133277   -2.540075    1.771349
  H     -2.760088   -2.931821    1.234959
  H     -0.652148   -2.152774    0.329612
  H      0.095237   -2.054987   -2.063888
  H      2.188263   -3.322037   -2.368582
  H      6.026017    2.197020    1.289803

 Multiplicity           Mult            ....    1
 Number of Electrons    NEL             ....  186
 Basis Dimension        Dim             .... 1512

ORBITAL ENERGIES
----------------

  NO   OCC          E(Eh)            E(eV)
   0   2.0000     -14.427637      -392.5960
   1   2.0000     -14.427486      -392.5919
   2   2.0000     -10.328169      -281.0438
   3   2.0000     -10.327582      -281.0278
   4   2.0000     -10.315996      -280.7125
   5   2.0000     -10.315370      -280.6955
   6   2.0000     -10.312819      -280.6261
   7   2.0000     -10.302948      -280.3575
   8   2.0000     -10.301431      -280.3162
   9   2.0000     -10.298805      -280.2447
  10   2.0000     -10.297433      -280.2074
  11   2.0000     -10.296805      -280.1903
  12   2.0000     -10.296538      -280.1830
  13   2.0000     -10.295969      -280.1676
  14   2.0000     -10.295218      -280.1471
  15   2.0000     -10.287792      -279.9451
  16   2.0000     -10.286874      -279.9201
  17   2.0000     -10.286641      -279.9137
  18   2.0000     -10.286398      -279.9071
  19   2.0000     -10.285883      -279.8931
  20   2.0000     -10.285638      -279.8864
  21   2.0000     -10.285278      -279.8767
  22   2.0000     -10.284780      -279.8631
  23   2.0000     -10.284381      -279.8522
  24   2.0000     -10.283815      -279.8368
  25   2.0000     -10.283717      -279.8342
  26   2.0000     -10.283314      -279.8232
  27   2.0000     -10.282826      -279.8099
  28   2.0000      -1.083279       -29.4775
  29   2.0000      -1.064159       -28.9572
  30   2.0000      -1.023792       -27.8588
  31   2.0000      -0.985759       -26.8239
  32   2.0000      -0.959399       -26.1066
  33   2.0000      -0.942731       -25.6530
  34   2.0000      -0.925367       -25.1805
  35   2.0000      -0.916274       -24.9331
  36   2.0000      -0.911064       -24.7913
  37   2.0000      -0.885072       -24.0840
  38   2.0000      -0.869150       -23.6508
  39   2.0000      -0.862486       -23.4694
  40   2.0000      -0.851221       -23.1629
  41   2.0000      -0.831629       -22.6298
  42   2.0000      -0.770783       -20.9741
  43   2.0000      -0.764624       -20.8065
  44   2.0000      -0.744128       -20.2488
  45   2.0000      -0.742854       -20.2141
  46   2.0000      -0.738984       -20.1088
  47   2.0000      -0.727013       -19.7830
  48   2.0000      -0.720781       -19.6134
  49   2.0000      -0.698924       -19.0187
  50   2.0000      -0.655051       -17.8248
  51   2.0000      -0.647708       -17.6250
  52   2.0000      -0.627802       -17.0834
  53   2.0000      -0.618819       -16.8389
  54   2.0000      -0.617869       -16.8131
  55   2.0000      -0.604256       -16.4426
  56   2.0000      -0.600046       -16.3281
  57   2.0000      -0.587566       -15.9885
  58   2.0000      -0.576771       -15.6947
  59   2.0000      -0.571886       -15.5618
  60   2.0000      -0.557321       -15.1655
  61   2.0000      -0.547156       -14.8889
  62   2.0000      -0.542905       -14.7732
  63   2.0000      -0.538741       -14.6599
  64   2.0000      -0.533187       -14.5087
  65   2.0000      -0.531462       -14.4618
  66   2.0000      -0.530019       -14.4226
  67   2.0000      -0.523969       -14.2579
  68   2.0000      -0.514685       -14.0053
  69   2.0000      -0.500506       -13.6195
  70   2.0000      -0.500141       -13.6095
  71   2.0000      -0.495063       -13.4714
  72   2.0000      -0.493263       -13.4224
  73   2.0000      -0.484237       -13.1767
  74   2.0000      -0.477695       -12.9987
  75   2.0000      -0.470546       -12.8042
  76   2.0000      -0.461042       -12.5456
  77   2.0000      -0.458572       -12.4784
  78   2.0000      -0.452629       -12.3167
  79   2.0000      -0.448600       -12.2070
  80   2.0000      -0.422089       -11.4856
  81   2.0000      -0.412026       -11.2118
  82   2.0000      -0.404578       -11.0091
  83   2.0000      -0.391046       -10.6409
  84   2.0000      -0.384847       -10.4722
  85   2.0000      -0.374427       -10.1887
  86   2.0000      -0.372299       -10.1308
  87   2.0000      -0.361483        -9.8365
  88   2.0000      -0.353577        -9.6213
  89   2.0000      -0.351061        -9.5529
  90   2.0000      -0.325112        -8.8467
  91   2.0000      -0.315459        -8.5841
  92   2.0000      -0.277284        -7.5453
  93   0.0000      -0.005783        -0.1574
  94   0.0000       0.010865         0.2957
  95   0.0000       0.029585         0.8050
  96   0.0000       0.036662         0.9976
  97   0.0000       0.043948         1.1959

MULLIKEN ATOMIC CHARGES
-----------------------
   0 C :   -0.120751
   1 C :   -0.534222
   2 C :   -0.533117
   3 C :    1.647294
   4 C :    1.052106
   5 C :   -0.752689
   6 C :    1.149968
   7 C :    0.583658
   8 C :   -0.247701
   9 C :   -0.149262
  10 C :    1.398178
  11 C :   -0.297770
  12 C :   -0.448055
  13 C :    0.832186
  14 C :   -0.686061
  15 C :   -0.670045
  16 C :   -0.656485
  17 C :    0.472070
  18 C :   -1.127993
  19 C :   -0.269694
  20 C :    0.820493
  21 C :   -0.361184
  22 C :   -0.725734
  23 C :   -0.457897
  24 C :   -0.766149
  25 N :   -0.786935
  26 N :   -0.530105
  27 C :   -0.641628
  28 H :    0.190714
  29 H :    0.256376
  30 H :    0.140822
  31 H :    0.034670
  32 H :    0.176023
  33 H :    0.143371
  34 H :    0.171346
  35 H :    0.191014
  36 H :    0.154995
  37 H :    0.275172
  38 H :    0.151658
  39 H :    0.163635
  40 H :    0.077946
  41 H :    0.115303
  42 H :    0.298454
  43 H :    0.266025
Sum of atomic charges:    0.0000000

LOEWDIN ATOMIC CHARGES
----------------------
   0 C :   -0.108083
   1 C :   -0.105951
   2 C :   -0.036121
   3 C :   -0.460027
   4 C :   -0.431467
   5 C :    0.064873
   6 C :   -0.322392
   7 C :   -0.234273
   8 C :    0.003668
   9 C :    0.002259
  10 C :   -0.288563
  11 C :   -0.011053
  12 C :   -0.012336
  13 C :   -0.297342
  14 C :   -0.032126
  15 C :   -0.095192
  16 C :   -0.031184
  17 C :   -0.298284
  18 C :   -0.002609
  19 C :    0.008568
  20 C :   -0.179641
  21 C :   -0.113612
  22 C :   -0.137844
  23 C :   -0.012864
  24 C :   -0.198750
  25 N :    0.256334
  26 N :    0.246380
  27 C :   -0.236812
  28 H :    0.170849
  29 H :    0.177021
  30 H :    0.196956
  31 H :    0.224047
  32 H :    0.206582
  33 H :    0.194296
  34 H :    0.193165
  35 H :    0.192624
  36 H :    0.191789
  37 H :    0.173965
  38 H :    0.191791
  39 H :    0.193870
  40 H :    0.209664
  41 H :    0.202687
  42 H :    0.173875
  43 H :    0.171264

  Mayer bond orders larger than 0.100000
B(  0-C ,  1-C ) :   1.2799 B(  0-C ,  2-C ) :  -0.1102 B(  0-C , 26-N ) :  -0.1046
B(  0-C , 27-C ) :   0.9763 B(  0-C , 28-H ) :   1.0431 B(  1-C ,  2-C ) :   1.2475
B(  1-C ,  3-C ) :  -0.3112 B(  1-C ,  4-C ) :   0.1793 B(  1-C , 20-C ) :  -0.1024
B(  1-C , 22-C ) :  -0.1053 B(  1-C , 27-C ) :   0.2240 B(  1-C , 29-H ) :   0.9294
B(  2-C ,  3-C ) :   0.1724 B(  2-C ,  4-C ) :   0.1913 B(  2-C , 26-N ) :   0.1458
B(  2-C , 30-H ) :   1.1714 B(  3-C ,  4-C ) :   0.2856 B(  3-C , 21-C ) :  -0.1164
B(  3-C , 25-N ) :  -0.2079 B(  3-C , 26-N ) :   0.5534 B(  3-C , 30-H ) :  -0.1995
B(  4-C ,  5-C ) :   0.2187 B(  4-C ,  6-C ) :  -0.2682 B(  4-C , 21-C ) :   0.1056
B(  4-C , 24-C ) :   0.3632 B(  4-C , 25-N ) :   0.1221 B(  4-C , 27-C ) :   0.1328
B(  4-C , 31-H ) :  -0.3101 B(  5-C ,  6-C ) :   0.7853 B(  5-C ,  7-C ) :   0.4217
B(  5-C , 20-C ) :  -0.1261 B(  5-C , 23-C ) :  -0.1040 B(  5-C , 25-N ) :   0.2837
B(  5-C , 26-N ) :  -0.3199 B(  5-C , 31-H ) :   1.4592 B(  6-C ,  8-C ) :   0.1130
B(  6-C ,  9-C ) :   0.3000 B(  6-C , 10-C ) :   0.1693 B(  6-C , 11-C ) :  -0.1357
B(  6-C , 13-C ) :   0.1043 B(  6-C , 19-C ) :  -0.2629 B(  6-C , 20-C ) :   0.1327
B(  6-C , 21-C ) :  -0.5266 B(  6-C , 22-C ) :   0.1968 B(  6-C , 23-C ) :   0.9572
B(  6-C , 24-C ) :  -0.2933 B(  6-C , 26-N ) :   0.1359 B(  6-C , 31-H ) :  -0.1870
B(  6-C , 41-H ) :  -0.1902 B(  7-C ,  8-C ) :   1.0063 B(  7-C ,  9-C ) :   0.2511
B(  7-C , 10-C ) :  -0.4095 B(  7-C , 11-C ) :   0.1071 B(  7-C , 13-C ) :  -0.1508
B(  7-C , 18-C ) :  -0.1244 B(  7-C , 19-C ) :  -0.2001 B(  7-C , 20-C ) :   0.8115
B(  7-C , 21-C ) :   1.2221 B(  7-C , 22-C ) :  -0.7973 B(  7-C , 24-C ) :   0.1271
B(  7-C , 40-H ) :  -0.1157 B(  8-C ,  9-C ) :   0.9491 B(  8-C , 10-C ) :   0.4247
B(  8-C , 11-C ) :  -0.2593 B(  8-C , 12-C ) :  -0.1699 B(  8-C , 13-C ) :   0.1312
B(  8-C , 15-C ) :   0.1764 B(  8-C , 16-C ) :  -0.1034 B(  8-C , 17-C ) :  -0.1528
B(  8-C , 18-C ) :  -0.1178 B(  8-C , 19-C ) :  -0.2096 B(  8-C , 20-C ) :   0.1090
B(  8-C , 21-C ) :  -0.3518 B(  8-C , 22-C ) :  -0.2812 B(  8-C , 32-H ) :   1.0661
B(  8-C , 34-H ) :  -0.1030 B(  9-C , 10-C ) :   0.7251 B(  9-C , 11-C ) :  -0.1401
B(  9-C , 12-C ) :  -0.4884 B(  9-C , 16-C ) :   0.1175 B(  9-C , 17-C ) :  -0.4168
B(  9-C , 18-C ) :  -0.1340 B(  9-C , 19-C ) :  -0.2462 B(  9-C , 20-C ) :  -0.1800
B(  9-C , 22-C ) :  -0.5796 B(  9-C , 33-H ) :   1.1412 B(  9-C , 34-H ) :  -0.1966
B( 10-C , 11-C ) :   0.1637 B( 10-C , 12-C ) :  -0.6431 B( 10-C , 13-C ) :  -0.2655
B( 10-C , 16-C ) :   0.1361 B( 10-C , 17-C ) :  -0.4592 B( 10-C , 19-C ) :   0.1454
B( 10-C , 20-C ) :  -0.4859 B( 10-C , 22-C ) :  -0.1618 B( 11-C , 12-C ) :   1.1441
B( 11-C , 13-C ) :   0.1519 B( 11-C , 14-C ) :  -0.2055 B( 11-C , 16-C ) :   0.1127
B( 11-C , 17-C ) :  -0.1447 B( 11-C , 20-C ) :  -0.4641 B( 11-C , 21-C ) :   0.6586
B( 11-C , 22-C ) :  -0.5683 B( 11-C , 34-H ) :   1.0764 B( 11-C , 35-H ) :  -0.1034
B( 11-C , 36-H ) :  -0.1122 B( 12-C , 13-C ) :   0.1965 B( 12-C , 14-C ) :  -0.4326
B( 12-C , 15-C ) :  -0.4020 B( 12-C , 17-C ) :   0.2774 B( 12-C , 20-C ) :   0.6091
B( 12-C , 22-C ) :   0.9509 B( 12-C , 35-H ) :   1.0603 B( 12-C , 36-H ) :  -0.1536
B( 13-C , 14-C ) :   0.5411 B( 13-C , 17-C ) :   0.5951 B( 13-C , 20-C ) :  -0.3015
B( 13-C , 21-C ) :  -0.4430 B( 13-C , 22-C ) :   0.2030 B( 13-C , 36-H ) :  -0.1259
B( 14-C , 15-C ) :   1.1626 B( 14-C , 16-C ) :   0.1974 B( 14-C , 20-C ) :   0.2510
B( 14-C , 22-C ) :   0.1687 B( 14-C , 36-H ) :   1.1083 B( 15-C , 16-C ) :   1.0563
B( 15-C , 17-C ) :  -0.1210 B( 15-C , 18-C ) :  -0.2892 B( 15-C , 21-C ) :   0.5731
B( 15-C , 22-C ) :   0.2054 B( 15-C , 37-H ) :   0.9227 B( 16-C , 17-C ) :   0.3379
B( 16-C , 18-C ) :  -0.2555 B( 16-C , 19-C ) :  -0.2017 B( 16-C , 21-C ) :  -0.1220
B( 16-C , 22-C ) :   0.2781 B( 16-C , 38-H ) :   1.1105 B( 17-C , 18-C ) :   0.4872
B( 17-C , 19-C ) :   0.4815 B( 17-C , 20-C ) :  -0.5166 B( 17-C , 21-C ) :   0.5929
B( 17-C , 22-C ) :   0.6497 B( 17-C , 38-H ) :  -0.1493 B( 18-C , 19-C ) :   0.9023
B( 18-C , 20-C ) :  -0.5220 B( 18-C , 21-C ) :   0.2441 B( 18-C , 22-C ) :   1.4959
B( 18-C , 23-C ) :   0.1603 B( 18-C , 38-H ) :  -0.1761 B( 18-C , 39-H ) :   1.1398
B( 18-C , 40-H ) :   0.2600 B( 19-C , 20-C ) :   0.1529 B( 19-C , 21-C ) :  -0.3054
B( 19-C , 22-C ) :  -1.0219 B( 19-C , 23-C ) :   0.3580 B( 19-C , 38-H ) :  -0.1063
B( 19-C , 39-H ) :  -0.2627 B( 19-C , 40-H ) :   1.2406 B( 20-C , 21-C ) :   0.6584
B( 20-C , 22-C ) :   0.7541 B( 20-C , 23-C ) :  -0.2154 B( 20-C , 40-H ) :  -0.3749
B( 21-C , 22-C ) :  -0.2680 B( 21-C , 34-H ) :   0.1238 B( 22-C , 36-H ) :   0.1171
B( 23-C , 24-C ) :   0.7964 B( 23-C , 41-H ) :   1.1991 B( 24-C , 25-N ) :   1.3423
B( 24-C , 42-H ) :   0.8830 B( 26-N , 27-C ) :   1.2939 B( 27-C , 43-H ) :   0.9290

-----------------------------------------------------------------------------
         ABSORPTION SPECTRUM VIA TRANSITION ELECTRIC DIPOLE MOMENTS
-----------------------------------------------------------------------------
State   Energy    Wavelength  fosc         T2        TX        TY        TZ
        (cm-1)      (nm)                 (au**2)    (au)      (au)      (au)
-----------------------------------------------------------------------------
   1   32804.9    304.8   0.946247588   9.49602   2.91024   0.41475  -0.92441
   2   33184.1    301.3   0.019673178   0.19517  -0.37597  -0.17127   0.15647
   3   38942.9    256.8   0.029729170   0.25132  -0.36204   0.33114  -0.10291
   4   39254.9    254.7   0.011259044   0.09442  -0.24239  -0.12750   0.13933
   5   40039.0    249.8   0.694255453   5.70837  -2.23862  -0.29247  -0.78193
   6   41631.6    240.2   0.050806950   0.40177  -0.28173  -0.53650  -0.18591
   7   41745.6    239.5   0.078310145   0.61757  -0.09242   0.76932   0.13103
   8   42015.1    238.0   0.534051454   4.18459   1.53704  -1.34346   0.13129
   9   42559.5    235.0   0.080275377   0.62096  -0.38913   0.68463  -0.02849
  10   43264.9    231.1   0.464638899   3.53554   0.20475  -1.81714   0.43775

Dispersion correction           -0.019470660
FINAL SINGLE POINT ENERGY     -1109.870967562402

DIPOLE MOMENT
-------------
                                X             Y             Z
Electronic contribution:     -0.51132       0.05044      -1.31958
Nuclear contribution   :      0.28916      -0.05291       1.54557
                        -----------------------------------------
Total Dipole Moment    :     -0.22216      -0.00247       0.22600
                        -----------------------------------------
Magnitude (a.u.)       :      0.31692
Magnitude (Debye)      :      0.80554

Rotational constants in cm-1:     0.016199     0.002669     0.002473
Rotational constants in MHz :   485.639563    80.008065    74.148543

                             ****ORCA TERMINATED NORMALLY****
TOTAL RUN TIME: 1 days 9 hours 26 minutes 50 seconds 744 msec
