                         Program Version 5.0.2 -  RELEASE  -
|  1> ! x3lyp aug-cc-PVTZ RIJCOSX Opt
|  2> %maxcore 4000
|  3> %basis
|  4>  AuxJ "aug-cc-PVTZ/JK"
|  5>  AuxC "aug-cc-PVTZ/C"
|  6>  newGTO H "cc-PVTZ" end
|  7>  newAuxJGTO H "cc-PVTZ/JK" end
|  8>  newAuxCGTO H "cc-PVTZ/C" end
|  9> end
| 10> %cpcm
| 11>  SMD true
| 12>  SMDsolvent "ethanol"
| 13> end
| 14> %pal nprocs 4 end
| 15> * xyz 0 1
| 16> C          7.12240        0.31380        0.93620
| 17> C          7.04720       -0.89500        0.26000
| 18> C          5.82560       -1.30360       -0.24170
| 19> C          4.71310       -0.48310       -0.04800
| 20> C          3.39440       -0.87590       -0.56410
| 21> C          2.28230       -0.06300       -0.35560
| 22> C          1.04600       -0.46030       -0.85190
| 23> C         -0.14230        0.38970       -0.67970
| 24> C         -0.06840        1.71650       -1.09430
| 25> C         -1.16310        2.55170       -1.02380
| 26> C         -2.38110        2.08790       -0.52440
| 27> C         -3.53690        2.91930       -0.45830
| 28> C         -4.70800        2.45620        0.03560
| 29> C         -4.82820        1.11880        0.51500
| 30> C         -6.02550        0.62130        1.03210
| 31> C         -6.11000       -0.67930        1.49390
| 32> C         -5.00690       -1.51200        1.45450
| 33> C         -3.79000       -1.05750        0.94430
| 34> C         -2.62640       -1.87890        0.90620
| 35> C         -1.45830       -1.42460        0.39620
| 36> C         -1.33990       -0.10470       -0.13390
| 37> C         -2.46940        0.75050       -0.06460
| 38> C         -3.69360        0.27110        0.46340
| 39> C          0.98770       -1.66310       -1.55740
| 40> C          2.15180       -2.39780       -1.71110
| 41> N          3.32310       -2.02770       -1.23060
| 42> N          4.78920        0.67740        0.60100
| 43> C          5.95910        1.05720        1.07510
| 44> H          8.05560        0.67050        1.34400
| 45> H          7.92850       -1.50670        0.12780
| 46> H          5.70410       -2.23170       -0.77590
| 47> H          2.39840        0.85350        0.20020
| 48> H          0.86310        2.08330       -1.50140
| 49> H         -1.08620        3.57430       -1.36450
| 50> H         -3.45120        3.93570       -0.81640
| 51> H         -5.58000        3.09330        0.08060
| 52> H         -6.89140        1.26690        1.06840
| 53> H         -7.04520       -1.04710        1.89090
| 54> H         -5.07850       -2.52610        1.82120
| 55> H         -2.69730       -2.88080        1.30590
| 56> H         -0.58400       -2.05870        0.39990
| 57> H          0.05890       -2.00290       -1.99000
| 58> H          2.14800       -3.33640       -2.25140
| 59> H          5.96260        2.00800        1.59360
| 60> *
| 61>
| 62>
| 63> $new_job
| 64> ! x3lyp aug-cc-PVTZ RIJCOSX SP
| 65> %maxcore 4000
| 66> %basis
| 67>  AuxJ "aug-cc-PVTZ/JK"
| 68>  AuxC "aug-cc-PVTZ/C"
| 69>  newGTO H "cc-PVTZ" end
| 70>  newAuxJGTO H "cc-PVTZ/JK" end
| 71>  newAuxCGTO H "cc-PVTZ/C" end
| 72> end
| 73> %cpcm
| 74>  SMD true
| 75>  SMDsolvent "ethanol"
| 76> end
| 77> %pal nprocs 4 end
| 78> %tddft
| 79>  nroots 10
| 80>  maxdim 7
| 81> end
| 82> * xyzfile 0 1
| 83>
| 84>                          ****END OF INPUT****
 Total Charge           Charge          ....    0
 Multiplicity           Mult            ....    1
 Number of Electrons    NEL             ....  186
FINAL SINGLE POINT ENERGY     -1109.372270925286
FINAL SINGLE POINT ENERGY     -1109.374112921422
FINAL SINGLE POINT ENERGY     -1109.374193818050
FINAL SINGLE POINT ENERGY     -1109.374207549257
FINAL SINGLE POINT ENERGY     -1109.374170546277
FINAL SINGLE POINT ENERGY     -1109.374174934250
FINAL SINGLE POINT ENERGY     -1109.374191642267
FINAL SINGLE POINT ENERGY     -1109.374187797155
FINAL SINGLE POINT ENERGY     -1109.374189539610
FINAL SINGLE POINT ENERGY     -1109.374189198747
FINAL SINGLE POINT ENERGY     -1109.374191378245
FINAL SINGLE POINT ENERGY     -1109.374201311505
FINAL SINGLE POINT ENERGY     -1109.374192473203
FINAL SINGLE POINT ENERGY     -1109.374187621116
FINAL SINGLE POINT ENERGY     -1109.374167230759
FINAL SINGLE POINT ENERGY     -1109.374172224911
FINAL SINGLE POINT ENERGY     -1109.374168021372
FINAL SINGLE POINT ENERGY     -1109.374180165034
                    ***********************HURRAY********************
FINAL SINGLE POINT ENERGY     -1109.374186074301

CARTESIAN COORDINATES (ANGSTROEM)
---------------------------------
  C      7.159820    0.422171    0.889220
  C      7.055246   -0.882218    0.427078
  C      5.837816   -1.327395   -0.062916
  C      4.750786   -0.451178   -0.078229
  C      3.423859   -0.883349   -0.598263
  C      2.286285   -0.105938   -0.387875
  C      1.049880   -0.524694   -0.878373
  C     -0.152405    0.325725   -0.694114
  C     -0.060207    1.669943   -1.067410
  C     -1.134443    2.533929   -0.957406
  C     -2.359714    2.086599   -0.456836
  C     -3.492112    2.955968   -0.340095
  C     -4.674778    2.509798    0.147521
  C     -4.834662    1.150188    0.569350
  C     -6.046128    0.668155    1.077448
  C     -6.171094   -0.654046    1.483111
  C     -5.092324   -1.523216    1.395456
  C     -3.862264   -1.083774    0.893381
  C     -2.722255   -1.942968    0.806533
  C     -1.539584   -1.506434    0.308241
  C     -1.369446   -0.161454   -0.165082
  C     -2.480820    0.728428   -0.051862
  C     -3.723610    0.265239    0.468090
  C      1.020672   -1.730117   -1.582215
  C      2.199328   -2.441262   -1.745356
  N      3.377685   -2.043616   -1.268567
  N      4.852229    0.807457    0.372969
  C      6.027628    1.224354    0.840697
  H      8.089645    0.812582    1.278590
  H      7.909394   -1.546094    0.449303
  H      5.721382   -2.336302   -0.426776
  H      2.370576    0.814631    0.168262
  H      0.872502    2.037800   -1.473377
  H     -1.032299    3.565717   -1.268562
  H     -3.380536    3.986418   -0.653564
  H     -5.523050    3.177848    0.228754
  H     -6.890808    1.341410    1.151501
  H     -7.116370   -1.008822    1.872552
  H     -5.193412   -2.551983    1.717273
  H     -2.818591   -2.962761    1.157963
  H     -0.700673   -2.185101    0.278768
  H      0.104596   -2.105178   -2.015096
  H      2.193307   -3.375662   -2.294970
  H      6.068248    2.249201    1.191885

 Multiplicity           Mult            ....    1
 Number of Electrons    NEL             ....  186
 Basis Dimension        Dim             .... 1512

ORBITAL ENERGIES
----------------

  NO   OCC          E(Eh)            E(eV)
   0   2.0000     -14.345454      -390.3596
   1   2.0000     -14.344565      -390.3355
   2   2.0000     -10.242501      -278.7126
   3   2.0000     -10.242101      -278.7017
   4   2.0000     -10.230772      -278.3935
   5   2.0000     -10.230549      -278.3874
   6   2.0000     -10.226384      -278.2740
   7   2.0000     -10.217152      -278.0228
   8   2.0000     -10.215947      -277.9900
   9   2.0000     -10.213368      -277.9199
  10   2.0000     -10.211944      -277.8811
  11   2.0000     -10.211184      -277.8604
  12   2.0000     -10.211076      -277.8575
  13   2.0000     -10.210389      -277.8388
  14   2.0000     -10.209632      -277.8182
  15   2.0000     -10.203224      -277.6438
  16   2.0000     -10.202986      -277.6374
  17   2.0000     -10.202531      -277.6250
  18   2.0000     -10.202374      -277.6207
  19   2.0000     -10.200337      -277.5653
  20   2.0000     -10.199964      -277.5551
  21   2.0000     -10.199811      -277.5510
  22   2.0000     -10.199077      -277.5310
  23   2.0000     -10.198891      -277.5259
  24   2.0000     -10.198729      -277.5215
  25   2.0000     -10.198485      -277.5149
  26   2.0000     -10.198318      -277.5103
  27   2.0000     -10.197822      -277.4968
  28   2.0000      -0.966422       -26.2977
  29   2.0000      -0.948132       -25.8000
  30   2.0000      -0.905387       -24.6368
  31   2.0000      -0.868011       -23.6198
  32   2.0000      -0.843427       -22.9508
  33   2.0000      -0.827225       -22.5099
  34   2.0000      -0.811415       -22.0797
  35   2.0000      -0.801442       -21.8084
  36   2.0000      -0.797155       -21.6917
  37   2.0000      -0.771526       -20.9943
  38   2.0000      -0.755468       -20.5573
  39   2.0000      -0.749975       -20.4078
  40   2.0000      -0.738796       -20.1037
  41   2.0000      -0.719514       -19.5790
  42   2.0000      -0.663119       -18.0444
  43   2.0000      -0.656129       -17.8542
  44   2.0000      -0.636425       -17.3180
  45   2.0000      -0.636223       -17.3125
  46   2.0000      -0.631066       -17.1722
  47   2.0000      -0.619548       -16.8588
  48   2.0000      -0.614282       -16.7155
  49   2.0000      -0.593783       -16.1576
  50   2.0000      -0.551328       -15.0024
  51   2.0000      -0.543219       -14.7818
  52   2.0000      -0.524521       -14.2730
  53   2.0000      -0.516767       -14.0619
  54   2.0000      -0.516111       -14.0441
  55   2.0000      -0.502986       -13.6869
  56   2.0000      -0.499522       -13.5927
  57   2.0000      -0.487212       -13.2577
  58   2.0000      -0.478311       -13.0155
  59   2.0000      -0.473450       -12.8832
  60   2.0000      -0.459335       -12.4992
  61   2.0000      -0.449786       -12.2393
  62   2.0000      -0.443692       -12.0735
  63   2.0000      -0.441434       -12.0120
  64   2.0000      -0.435688       -11.8557
  65   2.0000      -0.430510       -11.7148
  66   2.0000      -0.426906       -11.6167
  67   2.0000      -0.422385       -11.4937
  68   2.0000      -0.419462       -11.4141
  69   2.0000      -0.405694       -11.0395
  70   2.0000      -0.400402       -10.8955
  71   2.0000      -0.399906       -10.8820
  72   2.0000      -0.396093       -10.7782
  73   2.0000      -0.391837       -10.6624
  74   2.0000      -0.380475       -10.3533
  75   2.0000      -0.373749       -10.1702
  76   2.0000      -0.370669       -10.0864
  77   2.0000      -0.367845       -10.0096
  78   2.0000      -0.360531        -9.8106
  79   2.0000      -0.351721        -9.5708
  80   2.0000      -0.334091        -9.0911
  81   2.0000      -0.324319        -8.8252
  82   2.0000      -0.313217        -8.5231
  83   2.0000      -0.301726        -8.2104
  84   2.0000      -0.296145        -8.0585
  85   2.0000      -0.287281        -7.8173
  86   2.0000      -0.279134        -7.5956
  87   2.0000      -0.275343        -7.4925
  88   2.0000      -0.264258        -7.1908
  89   2.0000      -0.262744        -7.1496
  90   2.0000      -0.244713        -6.6590
  91   2.0000      -0.238886        -6.5004
  92   2.0000      -0.204808        -5.5731
  93   0.0000      -0.068038        -1.8514
  94   0.0000      -0.056035        -1.5248
  95   0.0000      -0.035988        -0.9793
  96   0.0000      -0.031871        -0.8672
  97   0.0000      -0.018132        -0.4934

MULLIKEN ATOMIC CHARGES
-----------------------
   0 C :   -0.172481
   1 C :   -0.498068
   2 C :   -0.463774
   3 C :    1.577830
   4 C :    0.911572
   5 C :   -0.509489
   6 C :    1.145712
   7 C :    0.418256
   8 C :   -0.362035
   9 C :   -0.338364
  10 C :    1.230024
  11 C :   -0.553980
  12 C :   -0.582871
  13 C :    0.918778
  14 C :   -0.659409
  15 C :   -0.668846
  16 C :   -0.697542
  17 C :    0.569651
  18 C :   -1.155088
  19 C :   -0.372898
  20 C :    0.797617
  21 C :    0.267945
  22 C :    0.129165
  23 C :   -0.497680
  24 C :   -0.654613
  25 N :   -0.819255
  26 N :   -0.608012
  27 C :   -0.487329
  28 H :    0.162261
  29 H :    0.225288
  30 H :    0.113602
  31 H :    0.005226
  32 H :    0.104274
  33 H :    0.096622
  34 H :    0.120116
  35 H :    0.144188
  36 H :    0.105882
  37 H :    0.234450
  38 H :    0.099335
  39 H :    0.116964
  40 H :    0.056359
  41 H :    0.047121
  42 H :    0.264987
  43 H :    0.238509
Sum of atomic charges:   -0.0000000

LOEWDIN ATOMIC CHARGES
----------------------
   0 C :   -0.108508
   1 C :   -0.107023
   2 C :   -0.034683
   3 C :   -0.455250
   4 C :   -0.428329
   5 C :    0.065144
   6 C :   -0.312116
   7 C :   -0.225365
   8 C :    0.000182
   9 C :    0.000480
  10 C :   -0.285968
  11 C :   -0.011326
  12 C :   -0.012680
  13 C :   -0.294024
  14 C :   -0.032614
  15 C :   -0.097221
  16 C :   -0.031292
  17 C :   -0.294997
  18 C :   -0.003479
  19 C :    0.007382
  20 C :   -0.174781
  21 C :   -0.107426
  22 C :   -0.130769
  23 C :   -0.015758
  24 C :   -0.203526
  25 N :    0.257084
  26 N :    0.248871
  27 C :   -0.239116
  28 H :    0.169280
  29 H :    0.175356
  30 H :    0.194151
  31 H :    0.219973
  32 H :    0.203844
  33 H :    0.191875
  34 H :    0.191478
  35 H :    0.191011
  36 H :    0.189393
  37 H :    0.172369
  38 H :    0.189235
  39 H :    0.192108
  40 H :    0.206289
  41 H :    0.199284
  42 H :    0.171975
  43 H :    0.169487

  Mayer bond orders larger than 0.100000
B(  0-C ,  1-C ) :   1.3505 B(  0-C , 27-C ) :   1.0744 B(  0-C , 28-H ) :   1.0307
B(  1-C ,  2-C ) :   1.2093 B(  1-C ,  3-C ) :  -0.2774 B(  1-C ,  4-C ) :   0.1466
B(  1-C , 27-C ) :   0.1848 B(  1-C , 29-H ) :   0.9314 B(  2-C ,  3-C ) :   0.4097
B(  2-C ,  4-C ) :   0.1656 B(  2-C , 26-N ) :   0.1553 B(  2-C , 30-H ) :   1.1310
B(  3-C ,  4-C ) :   0.3075 B(  3-C ,  6-C ) :   0.1178 B(  3-C , 26-N ) :   0.3249
B(  3-C , 30-H ) :  -0.1384 B(  4-C ,  5-C ) :   0.5385 B(  4-C ,  6-C ) :  -0.1946
B(  4-C , 24-C ) :   0.2739 B(  4-C , 26-N ) :   0.1754 B(  4-C , 27-C ) :   0.1169
B(  4-C , 31-H ) :  -0.2182 B(  5-C ,  6-C ) :   0.7678 B(  5-C ,  7-C ) :   0.4472
B(  5-C , 23-C ) :  -0.1155 B(  5-C , 25-N ) :   0.2491 B(  5-C , 26-N ) :  -0.4152
B(  5-C , 31-H ) :   1.3596 B(  6-C ,  8-C ) :   0.1126 B(  6-C ,  9-C ) :   0.2234
B(  6-C , 10-C ) :   0.1164 B(  6-C , 19-C ) :  -0.1919 B(  6-C , 21-C ) :  -0.2555
B(  6-C , 23-C ) :   0.9719 B(  6-C , 24-C ) :  -0.1994 B(  6-C , 26-N ) :   0.1354
B(  6-C , 31-H ) :  -0.1364 B(  6-C , 41-H ) :  -0.1796 B(  7-C ,  8-C ) :   0.8786
B(  7-C ,  9-C ) :   0.1681 B(  7-C , 10-C ) :  -0.3474 B(  7-C , 13-C ) :  -0.1543
B(  7-C , 17-C ) :  -0.1209 B(  7-C , 19-C ) :  -0.1644 B(  7-C , 20-C ) :   0.3878
B(  7-C , 21-C ) :   1.0825 B(  7-C , 22-C ) :  -0.2192 B(  7-C , 23-C ) :   0.1822
B(  8-C ,  9-C ) :   0.9114 B(  8-C , 10-C ) :   0.3600 B(  8-C , 11-C ) :  -0.2517
B(  8-C , 12-C ) :  -0.1147 B(  8-C , 15-C ) :   0.1197 B(  8-C , 17-C ) :  -0.1355
B(  8-C , 19-C ) :  -0.1485 B(  8-C , 20-C ) :   0.1497 B(  8-C , 21-C ) :  -0.2415
B(  8-C , 22-C ) :  -0.1165 B(  8-C , 32-H ) :   1.0817 B(  9-C , 10-C ) :   0.8553
B(  9-C , 12-C ) :  -0.3831 B(  9-C , 17-C ) :  -0.2930 B(  9-C , 19-C ) :  -0.1613
B(  9-C , 20-C ) :  -0.1543 B(  9-C , 22-C ) :  -0.4137 B(  9-C , 33-H ) :   1.1276
B(  9-C , 34-H ) :  -0.1277 B( 10-C , 11-C ) :   0.2800 B( 10-C , 12-C ) :  -0.2847
B( 10-C , 13-C ) :  -0.2235 B( 10-C , 17-C ) :  -0.1838 B( 10-C , 19-C ) :   0.1281
B( 10-C , 20-C ) :  -0.2164 B( 10-C , 21-C ) :  -0.2607 B( 10-C , 22-C ) :   0.1773
B( 11-C , 12-C ) :   1.1917 B( 11-C , 13-C ) :   0.1137 B( 11-C , 14-C ) :  -0.2208
B( 11-C , 20-C ) :  -0.1840 B( 11-C , 21-C ) :   0.6304 B( 11-C , 22-C ) :  -0.4069
B( 11-C , 34-H ) :   1.0724 B( 12-C , 13-C ) :   0.2403 B( 12-C , 14-C ) :  -0.2678
B( 12-C , 15-C ) :  -0.3125 B( 12-C , 17-C ) :   0.2405 B( 12-C , 20-C ) :   0.4114
B( 12-C , 22-C ) :   0.6329 B( 12-C , 35-H ) :   1.0518 B( 13-C , 14-C ) :   0.7076
B( 13-C , 15-C ) :   0.1208 B( 13-C , 17-C ) :   0.4778 B( 13-C , 21-C ) :  -0.2530
B( 13-C , 22-C ) :  -0.1694 B( 14-C , 15-C ) :   1.1697 B( 14-C , 16-C ) :   0.1886
B( 14-C , 20-C ) :   0.1634 B( 14-C , 21-C ) :   0.1257 B( 14-C , 22-C ) :  -0.1345
B( 14-C , 36-H ) :   1.1060 B( 15-C , 16-C ) :   1.1633 B( 15-C , 18-C ) :  -0.2292
B( 15-C , 21-C ) :   0.4079 B( 15-C , 22-C ) :  -0.1175 B( 15-C , 37-H ) :   0.9118
B( 16-C , 17-C ) :   0.5019 B( 16-C , 18-C ) :  -0.2423 B( 16-C , 19-C ) :  -0.2588
B( 16-C , 22-C ) :   0.1893 B( 16-C , 38-H ) :   1.1096 B( 17-C , 18-C ) :   0.4812
B( 17-C , 19-C ) :   0.4389 B( 17-C , 20-C ) :  -0.3921 B( 17-C , 21-C ) :   0.4628
B( 17-C , 22-C ) :   0.1397 B( 18-C , 19-C ) :   0.8170 B( 18-C , 20-C ) :  -0.2858
B( 18-C , 21-C ) :   0.1750 B( 18-C , 22-C ) :   1.0040 B( 18-C , 23-C ) :   0.1090
B( 18-C , 38-H ) :  -0.1182 B( 18-C , 39-H ) :   1.1286 B( 18-C , 40-H ) :   0.1919
B( 19-C , 20-C ) :   0.1983 B( 19-C , 21-C ) :  -0.1389 B( 19-C , 22-C ) :  -0.6970
B( 19-C , 23-C ) :   0.3231 B( 19-C , 38-H ) :  -0.1006 B( 19-C , 39-H ) :  -0.1894
B( 19-C , 40-H ) :   1.1568 B( 20-C , 21-C ) :  -0.1172 B( 20-C , 22-C ) :   0.8936
B( 20-C , 23-C ) :  -0.1547 B( 20-C , 40-H ) :  -0.1973 B( 21-C , 22-C ) :  -1.0808
B( 21-C , 34-H ) :   0.1104 B( 22-C , 38-H ) :   0.1218 B( 23-C , 24-C ) :   0.8772
B( 23-C , 41-H ) :   1.2217 B( 24-C , 25-N ) :   1.3609 B( 24-C , 42-H ) :   0.8904
B( 26-N , 27-C ) :   1.3380 B( 27-C , 43-H ) :   0.9294

-----------------------------------------------------------------------------
         ABSORPTION SPECTRUM VIA TRANSITION ELECTRIC DIPOLE MOMENTS
-----------------------------------------------------------------------------
State   Energy    Wavelength  fosc         T2        TX        TY        TZ
        (cm-1)      (nm)                 (au**2)    (au)      (au)      (au)
-----------------------------------------------------------------------------
   1   27378.0    365.3   0.480472744   5.77754   2.31276  -0.01444  -0.65460
   2   29313.3    341.1   0.351992807   3.95316   1.86705   0.40069  -0.55382
   3   29970.7    333.7   0.006908389   0.07589   0.25101   0.09461  -0.06269
   4   33442.3    299.0   0.038376803   0.37779   0.29600   0.50604  -0.18466
   5   34585.8    289.1   0.085040523   0.80948  -0.74378  -0.36913  -0.34643
   6   34860.9    286.9   0.011459608   0.10822   0.03707   0.29926  -0.13148
   7   34917.4    286.4   0.009940784   0.09372   0.01159   0.24334  -0.18541
   8   35820.5    279.2   0.135063679   1.24132  -0.32130   1.06169  -0.10436
   9   36625.0    273.0   0.390731872   3.51218   1.63961  -0.77393   0.47421
  10   36994.8    270.3   0.349146034   3.10700  -1.63604   0.55261  -0.35356

FINAL SINGLE POINT ENERGY     -1109.249443043041

DIPOLE MOMENT
-------------
                                X             Y             Z
Electronic contribution:     -0.58727       0.04243      -1.36341
Nuclear contribution   :      0.29811      -0.02380       1.62262
                        -----------------------------------------
Total Dipole Moment    :     -0.28916       0.01863       0.25921
                        -----------------------------------------
Magnitude (a.u.)       :      0.38878
Magnitude (Debye)      :      0.98820

Rotational constants in cm-1:     0.016214     0.002652     0.002447
Rotational constants in MHz :   486.083144    79.493097    73.355653

                             ****ORCA TERMINATED NORMALLY****
TOTAL RUN TIME: 0 days 17 hours 30 minutes 42 seconds 405 msec
