                         Program Version 5.0.2 -  RELEASE  -
|  1> ! b3lyp aug-cc-PVTZ RIJCOSX Opt
|  2> %maxcore 4000
|  3> %basis
|  4>  AuxJ "aug-cc-PVTZ/JK"
|  5>  AuxC "aug-cc-PVTZ/C"
|  6>  newGTO H "cc-PVTZ" end
|  7>  newAuxJGTO H "cc-PVTZ/JK" end
|  8>  newAuxCGTO H "cc-PVTZ/C" end
|  9> end
| 10> %cpcm
| 11>  SMD true
| 12>  SMDsolvent "dichloromethane"
| 13> end
| 14> %pal nprocs 4 end
| 15> * xyz 0 1
| 16> C          4.77420        1.63780        1.76330
| 17> C          3.81630        0.77330        1.01460
| 18> C          3.88450        0.52050       -0.31330
| 19> C          2.90810       -0.33290       -0.90840
| 20> O          2.92630       -0.57610       -2.22540
| 21> C          1.91360       -0.86660       -0.12770
| 22> C          0.93720       -1.85680       -0.69260
| 23> O          1.32790       -2.85030       -1.26890
| 24> C         -0.48320       -1.56900       -0.50450
| 25> C         -0.97210       -0.36870       -0.16210
| 26> C         -2.36670       -0.01160        0.00320
| 27> C         -2.68450        1.28840        0.40560
| 28> C         -4.00130        1.67060        0.57940
| 29> C         -5.02800        0.77430        0.35400
| 30> C         -4.72930       -0.52660       -0.04770
| 31> O         -5.76350       -1.38110       -0.26130
| 32> C         -3.40970       -0.91280       -0.22110
| 33> C          1.86060       -0.58470        1.28590
| 34> O          1.05850       -0.99880        2.08230
| 35> O          2.85470        0.25690        1.77900
| 36> H          5.53160        2.04190        1.09990
| 37> H          5.25080        1.05610        2.55030
| 38> H          4.23510        2.45280        2.24290
| 39> H          4.66780        0.95090       -0.91650
| 40> H          3.70140       -0.17760       -2.64210
| 41> H         -1.12870       -2.40770       -0.72070
| 42> H         -0.27690        0.44310        0.01320
| 43> H         -1.88930        1.99570        0.58790
| 44> H         -4.23310        2.67730        0.89340
| 45> H         -6.06130        1.05400        0.48210
| 46> H         -5.42750       -2.24770       -0.52110
| 47> H         -3.19390       -1.92450       -0.53350
| 48> *
| 49>
| 50>
| 51> $new_job
| 52> ! b3lyp aug-cc-PVTZ RIJCOSX SP
| 53> %maxcore 4000
| 54> %basis
| 55>  AuxJ "aug-cc-PVTZ/JK"
| 56>  AuxC "aug-cc-PVTZ/C"
| 57>  newGTO H "cc-PVTZ" end
| 58>  newAuxJGTO H "cc-PVTZ/JK" end
| 59>  newAuxCGTO H "cc-PVTZ/C" end
| 60> end
| 61> %cpcm
| 62>  SMD true
| 63>  SMDsolvent "dichloromethane"
| 64> end
| 65> %pal nprocs 4 end
| 66> %tddft
| 67>  nroots 10
| 68>  maxdim 7
| 69> end
| 70> * xyzfile 0 1
| 71>
| 72>                          ****END OF INPUT****
 Total Charge           Charge          ....    0
 Multiplicity           Mult            ....    1
 Number of Electrons    NEL             ....  142
FINAL SINGLE POINT ENERGY      -954.790329660969
FINAL SINGLE POINT ENERGY      -954.792776753407
FINAL SINGLE POINT ENERGY      -954.793031611554
FINAL SINGLE POINT ENERGY      -954.793605857239
FINAL SINGLE POINT ENERGY      -954.793676976942
FINAL SINGLE POINT ENERGY      -954.793730754749
FINAL SINGLE POINT ENERGY      -954.793764558788
FINAL SINGLE POINT ENERGY      -954.793794672066
FINAL SINGLE POINT ENERGY      -954.793828304705
FINAL SINGLE POINT ENERGY      -954.793858904822
FINAL SINGLE POINT ENERGY      -954.793873120942
FINAL SINGLE POINT ENERGY      -954.793873100097
                    ***********************HURRAY********************
FINAL SINGLE POINT ENERGY      -954.793872734950

CARTESIAN COORDINATES (ANGSTROEM)
---------------------------------
  C      4.875488    1.688604    1.645732
  C      3.894985    0.793460    0.980950
  C      3.726154    0.646017   -0.350359
  C      2.733641   -0.259903   -0.821697
  O      2.531006   -0.419683   -2.140317
  C      1.956931   -0.974019    0.055144
  C      0.939895   -1.985016   -0.421652
  O      1.324707   -3.066632   -0.849202
  C     -0.484278   -1.660540   -0.376247
  C     -0.971135   -0.460466   -0.013124
  C     -2.370585   -0.051429    0.038094
  C     -2.663485    1.255897    0.449595
  C     -3.981083    1.694513    0.509200
  C     -5.022804    0.846858    0.163022
  C     -4.738408   -0.458295   -0.247559
  O     -5.797735   -1.252183   -0.579527
  C     -3.427157   -0.907448   -0.309360
  C      2.152873   -0.819775    1.461194
  O      1.569297   -1.396216    2.357403
  O      3.140477    0.096227    1.856309
  H      5.457218    2.234960    0.906902
  H      5.552607    1.105629    2.274157
  H      4.359296    2.400859    2.293252
  H      4.333250    1.212138   -1.042230
  H      3.132353    0.146011   -2.648793
  H     -1.133600   -2.471645   -0.683208
  H     -0.266665    0.311973    0.276148
  H     -1.854877    1.921656    0.721153
  H     -4.199660    2.705203    0.827893
  H     -6.052057    1.177413    0.205414
  H     -5.484684   -2.130939   -0.838147
  H     -3.232368   -1.923128   -0.630041

 Multiplicity           Mult            ....    1
 Number of Electrons    NEL             ....  142
 Basis Dimension        Dim             .... 1088

ORBITAL ENERGIES
----------------

  NO   OCC          E(Eh)            E(eV)
   0   2.0000     -19.200426      -522.4702
   1   2.0000     -19.186325      -522.0864
   2   2.0000     -19.162485      -521.4377
   3   2.0000     -19.120138      -520.2854
   4   2.0000     -19.107590      -519.9440
   5   2.0000     -10.306599      -280.4568
   6   2.0000     -10.276385      -279.6347
   7   2.0000     -10.269985      -279.4605
   8   2.0000     -10.269196      -279.4390
   9   2.0000     -10.243121      -278.7295
  10   2.0000     -10.199783      -277.5502
  11   2.0000     -10.196147      -277.4513
  12   2.0000     -10.188889      -277.2538
  13   2.0000     -10.186747      -277.1955
  14   2.0000     -10.181134      -277.0427
  15   2.0000     -10.179704      -277.0038
  16   2.0000     -10.179335      -276.9938
  17   2.0000     -10.178884      -276.9815
  18   2.0000     -10.176922      -276.9281
  19   2.0000     -10.176647      -276.9207
  20   2.0000      -1.122776       -30.5523
  21   2.0000      -1.094193       -29.7745
  22   2.0000      -1.065445       -28.9922
  23   2.0000      -1.043234       -28.3878
  24   2.0000      -1.029683       -28.0191
  25   2.0000      -0.867624       -23.6093
  26   2.0000      -0.837856       -22.7992
  27   2.0000      -0.812983       -22.1224
  28   2.0000      -0.801174       -21.8011
  29   2.0000      -0.752831       -20.4856
  30   2.0000      -0.747518       -20.3410
  31   2.0000      -0.723996       -19.7009
  32   2.0000      -0.666819       -18.1451
  33   2.0000      -0.664062       -18.0701
  34   2.0000      -0.647487       -17.6190
  35   2.0000      -0.624256       -16.9869
  36   2.0000      -0.589252       -16.0344
  37   2.0000      -0.573152       -15.5962
  38   2.0000      -0.561098       -15.2683
  39   2.0000      -0.546870       -14.8811
  40   2.0000      -0.531455       -14.4616
  41   2.0000      -0.512228       -13.9384
  42   2.0000      -0.495183       -13.4746
  43   2.0000      -0.487477       -13.2649
  44   2.0000      -0.474750       -12.9186
  45   2.0000      -0.464535       -12.6406
  46   2.0000      -0.455314       -12.3897
  47   2.0000      -0.448049       -12.1920
  48   2.0000      -0.436330       -11.8731
  49   2.0000      -0.434243       -11.8164
  50   2.0000      -0.428961       -11.6726
  51   2.0000      -0.422510       -11.4971
  52   2.0000      -0.421165       -11.4605
  53   2.0000      -0.418618       -11.3912
  54   2.0000      -0.407872       -11.0988
  55   2.0000      -0.403445       -10.9783
  56   2.0000      -0.399107       -10.8602
  57   2.0000      -0.386427       -10.5152
  58   2.0000      -0.380337       -10.3495
  59   2.0000      -0.368131       -10.0173
  60   2.0000      -0.361100        -9.8260
  61   2.0000      -0.359296        -9.7770
  62   2.0000      -0.356267        -9.6945
  63   2.0000      -0.350390        -9.5346
  64   2.0000      -0.305367        -8.3095
  65   2.0000      -0.293692        -7.9918
  66   2.0000      -0.288036        -7.8379
  67   2.0000      -0.265345        -7.2204
  68   2.0000      -0.248011        -6.7487
  69   2.0000      -0.235030        -6.3955
  70   2.0000      -0.231988        -6.3127
  71   0.0000      -0.082743        -2.2516
  72   0.0000      -0.051878        -1.4117
  73   0.0000      -0.014205        -0.3865
  74   0.0000      -0.007038        -0.1915
  75   0.0000      -0.001708        -0.0465

MULLIKEN ATOMIC CHARGES
-----------------------
   0 C :   -0.496245
   1 C :    0.794154
   2 C :   -0.555046
   3 C :    0.220446
   4 O :   -0.631879
   5 C :    1.017576
   6 C :    0.743118
   7 O :   -0.947199
   8 C :   -0.460024
   9 C :   -0.102353
  10 C :    1.830161
  11 C :   -0.629441
  12 C :   -0.363574
  13 C :   -0.421410
  14 C :    0.746029
  15 O :   -0.612054
  16 C :   -0.894175
  17 C :    0.555378
  18 O :   -0.914029
  19 O :   -0.461799
  20 H :    0.160872
  21 H :    0.170027
  22 H :    0.169270
  23 H :    0.089709
  24 H :    0.214024
  25 H :    0.045817
  26 H :   -0.015790
  27 H :    0.115918
  28 H :    0.199174
  29 H :    0.201252
  30 H :    0.212205
  31 H :    0.019891
Sum of atomic charges:    0.0000000

LOEWDIN ATOMIC CHARGES
----------------------
   0 C :    0.067445
   1 C :   -0.687177
   2 C :    0.014574
   3 C :   -0.600617
   4 O :    0.620505
   5 C :   -0.251749
   6 C :   -0.712619
   7 O :    0.442850
   8 C :   -0.035291
   9 C :   -0.047897
  10 C :   -0.401118
  11 C :   -0.069863
  12 C :   -0.114318
  13 C :   -0.065599
  14 C :   -0.689344
  15 O :    0.540749
  16 C :    0.004034
  17 C :   -0.859872
  18 O :    0.424369
  19 O :    0.575655
  20 H :    0.134134
  21 H :    0.134368
  22 H :    0.134097
  23 H :    0.197014
  24 H :    0.043938
  25 H :    0.201834
  26 H :    0.230087
  27 H :    0.188336
  28 H :    0.172605
  29 H :    0.182321
  30 H :    0.024610
  31 H :    0.201940

  Mayer bond orders larger than 0.100000
B(  0-C ,  1-C ) :   0.4548 B(  0-C ,  2-C ) :   0.1512 B(  0-C , 20-H ) :   1.0399
B(  0-C , 21-H ) :   1.0015 B(  0-C , 22-H ) :   1.0009 B(  1-C ,  2-C ) :   1.0156
B(  1-C ,  5-C ) :  -0.1576 B(  1-C , 17-C ) :   0.1928 B(  1-C , 19-O ) :   1.0050
B(  1-C , 20-H ) :  -0.1050 B(  1-C , 23-H ) :  -0.1449 B(  2-C ,  3-C ) :   1.1125
B(  2-C , 23-H ) :   1.1605 B(  3-C ,  4-O ) :   0.7435 B(  3-C ,  5-C ) :   1.2794
B(  3-C ,  6-C ) :   0.1402 B(  3-C ,  7-O ) :   0.1343 B(  4-O , 24-H ) :   0.9759
B(  5-C ,  6-C ) :   0.4546 B(  5-C ,  9-C ) :  -0.1405 B(  5-C , 17-C ) :   0.9336
B(  5-C , 19-O ) :   0.1533 B(  6-C ,  7-O ) :   0.6662 B(  6-C ,  8-C ) :   0.5193
B(  6-C ,  9-C ) :   0.1058 B(  6-C , 25-H ) :  -0.1577 B(  7-O ,  9-C ) :   0.1435
B(  8-C ,  9-C ) :   0.8585 B(  8-C , 11-C ) :   0.1252 B(  8-C , 25-H ) :   1.2774
B(  9-C , 10-C ) :  -0.2567 B(  9-C , 11-C ) :   0.1348 B(  9-C , 13-C ) :   0.1378
B(  9-C , 16-C ) :   0.2276 B(  9-C , 25-H ) :  -0.1466 B(  9-C , 26-H ) :   1.3829
B( 10-C , 11-C ) :   0.3475 B( 10-C , 13-C ) :  -0.2005 B( 10-C , 14-C ) :  -0.1399
B( 10-C , 16-C ) :   0.3991 B( 10-C , 26-H ) :  -0.2229 B( 10-C , 27-H ) :  -0.1274
B( 10-C , 31-H ) :  -0.1157 B( 11-C , 12-C ) :   1.2837 B( 11-C , 16-C ) :   0.1023
B( 11-C , 27-H ) :   1.1173 B( 12-C , 13-C ) :   1.2138 B( 12-C , 28-H ) :   0.9525
B( 13-C , 14-C ) :   1.0917 B( 13-C , 29-H ) :   0.9616 B( 14-C , 15-O ) :   0.5440
B( 14-C , 16-C ) :   1.1561 B( 15-O , 30-H ) :   0.9615 B( 16-C , 31-H ) :   1.2422
B( 17-C , 18-O ) :   0.9189 B( 17-C , 19-O ) :   0.6183

-----------------------------------------------------------------------------
         ABSORPTION SPECTRUM VIA TRANSITION ELECTRIC DIPOLE MOMENTS
-----------------------------------------------------------------------------
State   Energy    Wavelength  fosc         T2        TX        TY        TZ
        (cm-1)      (nm)                 (au**2)    (au)      (au)      (au)
-----------------------------------------------------------------------------
   1   26385.3    379.0   0.019743663   0.24634  -0.49086  -0.01718  -0.07147
   2   29796.1    335.6   0.222732028   2.46093   1.23173  -0.93901  -0.24907
   3   30274.2    330.3   0.007806511   0.08489   0.07839   0.25937   0.10711
   4   33843.1    295.5   0.791095409   7.69547  -2.66669   0.74328   0.17826
   5   35723.2    279.9   0.078788208   0.72608   0.77213  -0.35547  -0.05942
   6   37439.2    267.1   0.187801799   1.65139  -0.36813  -1.23091  -0.02700
   7   38966.8    256.6   0.012088397   0.10213  -0.27456  -0.16254  -0.01804
   8   39011.9    256.3   0.002902717   0.02450   0.15646  -0.00365   0.00084
   9   40000.3    250.0   0.057552497   0.47367  -0.52388  -0.44630   0.00600
  10   40656.4    246.0   0.001409443   0.01141  -0.08911   0.02023  -0.05535

FINAL SINGLE POINT ENERGY      -954.673652406517

DIPOLE MOMENT
-------------
                                X             Y             Z
Electronic contribution:      0.70736      -7.02081      -1.27800
Nuclear contribution   :      0.43450      10.25342      -0.31108
                        -----------------------------------------
Total Dipole Moment    :      1.14185       3.23261      -1.58908
                        -----------------------------------------
Magnitude (a.u.)       :      3.77873
Magnitude (Debye)      :      9.60476

Rotational constants in cm-1:     0.022204     0.005183     0.004798
Rotational constants in MHz :   665.671576   155.395166   143.841674

                             ****ORCA TERMINATED NORMALLY****
TOTAL RUN TIME: 0 days 3 hours 57 minutes 2 seconds 667 msec
