                         Program Version 5.0.2 -  RELEASE  -
|  1> ! m062x defgrid3 aug-cc-PVTZ RIJCOSX Opt
|  2> %maxcore 4000
|  3> %basis
|  4>  AuxJ "aug-cc-PVTZ/JK"
|  5>  AuxC "aug-cc-PVTZ/C"
|  6>  newGTO H "cc-PVTZ" end
|  7>  newAuxJGTO H "cc-PVTZ/JK" end
|  8>  newAuxCGTO H "cc-PVTZ/C" end
|  9> end
| 10> %cpcm
| 11>  SMD true
| 12>  SMDsolvent "dichloromethane"
| 13> end
| 14> %pal nprocs 4 end
| 15> * xyz 0 1
| 16> C          4.77420        1.63780        1.76330
| 17> C          3.81630        0.77330        1.01460
| 18> C          3.88450        0.52050       -0.31330
| 19> C          2.90810       -0.33290       -0.90840
| 20> O          2.92630       -0.57610       -2.22540
| 21> C          1.91360       -0.86660       -0.12770
| 22> C          0.93720       -1.85680       -0.69260
| 23> O          1.32790       -2.85030       -1.26890
| 24> C         -0.48320       -1.56900       -0.50450
| 25> C         -0.97210       -0.36870       -0.16210
| 26> C         -2.36670       -0.01160        0.00320
| 27> C         -2.68450        1.28840        0.40560
| 28> C         -4.00130        1.67060        0.57940
| 29> C         -5.02800        0.77430        0.35400
| 30> C         -4.72930       -0.52660       -0.04770
| 31> O         -5.76350       -1.38110       -0.26130
| 32> C         -3.40970       -0.91280       -0.22110
| 33> C          1.86060       -0.58470        1.28590
| 34> O          1.05850       -0.99880        2.08230
| 35> O          2.85470        0.25690        1.77900
| 36> H          5.53160        2.04190        1.09990
| 37> H          5.25080        1.05610        2.55030
| 38> H          4.23510        2.45280        2.24290
| 39> H          4.66780        0.95090       -0.91650
| 40> H          3.70140       -0.17760       -2.64210
| 41> H         -1.12870       -2.40770       -0.72070
| 42> H         -0.27690        0.44310        0.01320
| 43> H         -1.88930        1.99570        0.58790
| 44> H         -4.23310        2.67730        0.89340
| 45> H         -6.06130        1.05400        0.48210
| 46> H         -5.42750       -2.24770       -0.52110
| 47> H         -3.19390       -1.92450       -0.53350
| 48> *
| 49>
| 50>
| 51> $new_job
| 52> ! m062x defgrid3 aug-cc-PVTZ RIJCOSX SP
| 53> %maxcore 4000
| 54> %basis
| 55>  AuxJ "aug-cc-PVTZ/JK"
| 56>  AuxC "aug-cc-PVTZ/C"
| 57>  newGTO H "cc-PVTZ" end
| 58>  newAuxJGTO H "cc-PVTZ/JK" end
| 59>  newAuxCGTO H "cc-PVTZ/C" end
| 60> end
| 61> %cpcm
| 62>  SMD true
| 63>  SMDsolvent "dichloromethane"
| 64> end
| 65> %pal nprocs 4 end
| 66> %tddft
| 67>  nroots 10
| 68>  maxdim 7
| 69> end
| 70> * xyzfile 0 1
| 71>
| 72>                          ****END OF INPUT****
 Total Charge           Charge          ....    0
 Multiplicity           Mult            ....    1
 Number of Electrons    NEL             ....  142
FINAL SINGLE POINT ENERGY      -954.950431405366
FINAL SINGLE POINT ENERGY      -954.951794504457
FINAL SINGLE POINT ENERGY      -954.952025467783
FINAL SINGLE POINT ENERGY      -954.952547559470
FINAL SINGLE POINT ENERGY      -954.952592099164
FINAL SINGLE POINT ENERGY      -954.952603672088
FINAL SINGLE POINT ENERGY      -954.952599629097
FINAL SINGLE POINT ENERGY      -954.952610671784
FINAL SINGLE POINT ENERGY      -954.952610794600
                    ***********************HURRAY********************
FINAL SINGLE POINT ENERGY      -954.952607040814

CARTESIAN COORDINATES (ANGSTROEM)
---------------------------------
  C      4.771113    1.736286    1.653258
  C      3.841731    0.815290    0.956561
  C      3.834038    0.544935   -0.360320
  C      2.859260   -0.366995   -0.863083
  O      2.808838   -0.640507   -2.167868
  C      1.949730   -0.950092   -0.025933
  C      0.938788   -1.937087   -0.534350
  O      1.310922   -2.976476   -1.043663
  C     -0.493744   -1.625021   -0.434987
  C     -0.961870   -0.439410   -0.035431
  C     -2.367700   -0.041682    0.060349
  C     -2.661249    1.230802    0.551262
  C     -3.981201    1.648655    0.664249
  C     -5.017318    0.811823    0.289159
  C     -4.726933   -0.459864   -0.204161
  O     -5.778258   -1.242300   -0.561723
  C     -3.414531   -0.887883   -0.318823
  C      1.992198   -0.659734    1.375657
  O      1.282816   -1.125884    2.236049
  O      2.958146    0.239915    1.791630
  H      5.463197    2.183808    0.945375
  H      5.330419    1.189823    2.413910
  H      4.205116    2.521791    2.155906
  H      4.548034    1.016696   -1.019911
  H      3.492500   -0.148803   -2.646769
  H     -1.147060   -2.432410   -0.743533
  H     -0.253784    0.330150    0.256502
  H     -1.852173    1.886677    0.845117
  H     -4.204168    2.635206    1.047985
  H     -6.050560    1.121930    0.369780
  H     -5.461420   -2.100201   -0.874418
  H     -3.215279   -1.879337   -0.707673

 Multiplicity           Mult            ....    1
 Number of Electrons    NEL             ....  142
 Basis Dimension        Dim             .... 1088

ORBITAL ENERGIES
----------------

  NO   OCC          E(Eh)            E(eV)
   0   2.0000     -19.703513      -536.1598
   1   2.0000     -19.684243      -535.6355
   2   2.0000     -19.657600      -534.9105
   3   2.0000     -19.623158      -533.9733
   4   2.0000     -19.608545      -533.5756
   5   2.0000     -10.682720      -290.6916
   6   2.0000     -10.650372      -289.8114
   7   2.0000     -10.641617      -289.5731
   8   2.0000     -10.641496      -289.5698
   9   2.0000     -10.610915      -288.7377
  10   2.0000     -10.566362      -287.5253
  11   2.0000     -10.562419      -287.4180
  12   2.0000     -10.555329      -287.2251
  13   2.0000     -10.554378      -287.1992
  14   2.0000     -10.548160      -287.0300
  15   2.0000     -10.546432      -286.9830
  16   2.0000     -10.546281      -286.9789
  17   2.0000     -10.544541      -286.9316
  18   2.0000     -10.543047      -286.8909
  19   2.0000     -10.542675      -286.8808
  20   2.0000      -1.261562       -34.3289
  21   2.0000      -1.223827       -33.3020
  22   2.0000      -1.191080       -32.4109
  23   2.0000      -1.175016       -31.9738
  24   2.0000      -1.158462       -31.5233
  25   2.0000      -0.975263       -26.5382
  26   2.0000      -0.945225       -25.7209
  27   2.0000      -0.918027       -24.9808
  28   2.0000      -0.905167       -24.6308
  29   2.0000      -0.850965       -23.1559
  30   2.0000      -0.845145       -22.9976
  31   2.0000      -0.820176       -22.3181
  32   2.0000      -0.759982       -20.6802
  33   2.0000      -0.754428       -20.5290
  34   2.0000      -0.736788       -20.0490
  35   2.0000      -0.710039       -19.3211
  36   2.0000      -0.673804       -18.3352
  37   2.0000      -0.656700       -17.8697
  38   2.0000      -0.645541       -17.5661
  39   2.0000      -0.625202       -17.0126
  40   2.0000      -0.611877       -16.6500
  41   2.0000      -0.590496       -16.0682
  42   2.0000      -0.581393       -15.8205
  43   2.0000      -0.570532       -15.5250
  44   2.0000      -0.551259       -15.0005
  45   2.0000      -0.543965       -14.8020
  46   2.0000      -0.537365       -14.6224
  47   2.0000      -0.523757       -14.2522
  48   2.0000      -0.515984       -14.0406
  49   2.0000      -0.514478       -13.9996
  50   2.0000      -0.504238       -13.7210
  51   2.0000      -0.503419       -13.6987
  52   2.0000      -0.494004       -13.4425
  53   2.0000      -0.492984       -13.4148
  54   2.0000      -0.483542       -13.1578
  55   2.0000      -0.476313       -12.9611
  56   2.0000      -0.472608       -12.8603
  57   2.0000      -0.456247       -12.4151
  58   2.0000      -0.447273       -12.1709
  59   2.0000      -0.439009       -11.9461
  60   2.0000      -0.435814       -11.8591
  61   2.0000      -0.430552       -11.7159
  62   2.0000      -0.420171       -11.4334
  63   2.0000      -0.408759       -11.1229
  64   2.0000      -0.372963       -10.1488
  65   2.0000      -0.362533        -9.8650
  66   2.0000      -0.357184        -9.7195
  67   2.0000      -0.338092        -9.2000
  68   2.0000      -0.301658        -8.2085
  69   2.0000      -0.291124        -7.9219
  70   2.0000      -0.282621        -7.6905
  71   0.0000      -0.049997        -1.3605
  72   0.0000      -0.018555        -0.5049
  73   0.0000      -0.002933        -0.0798
  74   0.0000       0.005079         0.1382
  75   0.0000       0.010584         0.2880

MULLIKEN ATOMIC CHARGES
-----------------------
   0 C :   -0.716411
   1 C :    0.930618
   2 C :   -0.638669
   3 C :    0.348463
   4 O :   -0.794915
   5 C :    1.272711
   6 C :    0.721267
   7 O :   -1.003221
   8 C :   -0.462718
   9 C :   -0.140985
  10 C :    2.288658
  11 C :   -0.562760
  12 C :   -0.501157
  13 C :   -0.391671
  14 C :    0.873187
  15 O :   -0.769968
  16 C :   -0.894731
  17 C :    0.444497
  18 O :   -1.014204
  19 O :   -0.387921
  20 H :    0.164944
  21 H :    0.192119
  22 H :    0.190606
  23 H :    0.055974
  24 H :    0.300451
  25 H :   -0.005322
  26 H :   -0.061239
  27 H :    0.037716
  28 H :    0.119710
  29 H :    0.158261
  30 H :    0.297194
  31 H :   -0.050484
Sum of atomic charges:   -0.0000000

LOEWDIN ATOMIC CHARGES
----------------------
   0 C :    0.077705
   1 C :   -0.697411
   2 C :    0.021961
   3 C :   -0.608518
   4 O :    0.625456
   5 C :   -0.242554
   6 C :   -0.715089
   7 O :    0.454081
   8 C :   -0.035979
   9 C :   -0.061937
  10 C :   -0.411468
  11 C :   -0.072097
  12 C :   -0.116421
  13 C :   -0.066535
  14 C :   -0.704372
  15 O :    0.541356
  16 C :    0.001979
  17 C :   -0.886557
  18 O :    0.438511
  19 O :    0.582540
  20 H :    0.135331
  21 H :    0.135946
  22 H :    0.135838
  23 H :    0.199713
  24 H :    0.047811
  25 H :    0.204802
  26 H :    0.235962
  27 H :    0.190480
  28 H :    0.173796
  29 H :    0.184262
  30 H :    0.026007
  31 H :    0.205401

  Mayer bond orders larger than 0.100000
B(  0-C ,  1-C ) :   0.3661 B(  0-C ,  2-C ) :   0.1788 B(  0-C , 20-H ) :   1.0546
B(  0-C , 21-H ) :   1.0119 B(  0-C , 22-H ) :   1.0124 B(  1-C ,  2-C ) :   0.8997
B(  1-C ,  5-C ) :  -0.2099 B(  1-C , 17-C ) :   0.2422 B(  1-C , 19-O ) :   1.0130
B(  1-C , 20-H ) :  -0.1292 B(  1-C , 23-H ) :  -0.2261 B(  2-C ,  3-C ) :   1.0064
B(  2-C ,  5-C ) :  -0.1478 B(  2-C , 23-H ) :   1.2823 B(  3-C ,  4-O ) :   0.8842
B(  3-C ,  5-C ) :   1.0669 B(  3-C ,  6-C ) :   0.1343 B(  3-C ,  7-O ) :   0.1086
B(  3-C , 23-H ) :  -0.1127 B(  4-O ,  5-C ) :  -0.1714 B(  4-O , 24-H ) :   0.9357
B(  5-C ,  6-C ) :   0.5364 B(  5-C ,  8-C ) :   0.1333 B(  5-C ,  9-C ) :  -0.2039
B(  5-C , 17-C ) :   0.8525 B(  5-C , 18-O ) :  -0.1086 B(  6-C ,  7-O ) :   0.5078
B(  6-C ,  8-C ) :   0.5275 B(  6-C , 11-C ) :  -0.1016 B(  6-C , 12-C ) :   0.1067
B(  6-C , 25-H ) :  -0.1976 B(  7-O ,  9-C ) :   0.1475 B(  8-C ,  9-C ) :   0.7673
B(  8-C , 11-C ) :   0.1294 B(  8-C , 25-H ) :   1.3706 B(  8-C , 26-H ) :  -0.1197
B(  9-C , 10-C ) :  -0.2865 B(  9-C , 11-C ) :   0.2705 B(  9-C , 13-C ) :   0.1172
B(  9-C , 14-C ) :   0.1004 B(  9-C , 25-H ) :  -0.3182 B(  9-C , 26-H ) :   1.4044
B( 10-C , 11-C ) :   0.1363 B( 10-C , 12-C ) :  -0.2391 B( 10-C , 13-C ) :  -0.1816
B( 10-C , 14-C ) :  -0.3246 B( 10-C , 16-C ) :   0.2911 B( 10-C , 26-H ) :  -0.2411
B( 10-C , 27-H ) :  -0.3258 B( 10-C , 31-H ) :  -0.3439 B( 11-C , 12-C ) :   1.1850
B( 11-C , 27-H ) :   1.3001 B( 12-C , 13-C ) :   1.1984 B( 12-C , 28-H ) :   1.1142
B( 13-C , 14-C ) :   0.9285 B( 13-C , 15-O ) :  -0.1051 B( 13-C , 28-H ) :  -0.1020
B( 13-C , 29-H ) :   1.0792 B( 14-C , 15-O ) :   0.5019 B( 14-C , 16-C ) :   1.2928
B( 14-C , 29-H ) :  -0.1277 B( 15-O , 30-H ) :   0.9211 B( 16-C , 31-H ) :   1.4657
B( 17-C , 18-O ) :   0.8645 B( 17-C , 19-O ) :   0.9237

-----------------------------------------------------------------------------
         ABSORPTION SPECTRUM VIA TRANSITION ELECTRIC DIPOLE MOMENTS
-----------------------------------------------------------------------------
State   Energy    Wavelength  fosc         T2        TX        TY        TZ
        (cm-1)      (nm)                 (au**2)    (au)      (au)      (au)
-----------------------------------------------------------------------------
   1   30522.4    327.6   0.014045594   0.15149   0.37797   0.06167   0.06949
   2   34204.0    292.4   0.507025570   4.88010  -2.12400   0.59097   0.13962
   3   36002.0    277.8   0.196941723   1.80089  -0.62181   1.10949   0.42811
   4   38400.9    260.4   0.443299929   3.80042   1.81823  -0.66398  -0.23147
   5   40413.0    247.4   0.242529501   1.97569   0.82775   1.13597  -0.01004
   6   45410.3    220.2   0.022278278   0.16151   0.38526   0.11373   0.01217
   7   46890.8    213.3   0.001092563   0.00767   0.01366  -0.03146   0.08059
   8   46971.4    212.9   0.017673371   0.12387   0.27392   0.19334   0.10705
   9   47453.5    210.7   0.001769687   0.01228   0.03069  -0.06310   0.08575
  10   48190.2    207.5   0.058735406   0.40125   0.43429   0.43290   0.15887

FINAL SINGLE POINT ENERGY      -954.813536705010

DIPOLE MOMENT
-------------
                                X             Y             Z
Electronic contribution:      1.00156      -6.85316      -1.65314
Nuclear contribution   :      0.80319       9.69977       0.27815
                        -----------------------------------------
Total Dipole Moment    :      1.80474       2.84661      -1.37500
                        -----------------------------------------
Magnitude (a.u.)       :      3.64018
Magnitude (Debye)      :      9.25260

Rotational constants in cm-1:     0.022514     0.005308     0.004796
Rotational constants in MHz :   674.964199   159.126997   143.774588

                             ****ORCA TERMINATED NORMALLY****
TOTAL RUN TIME: 0 days 6 hours 18 minutes 35 seconds 408 msec
