                         Program Version 5.0.2 -  RELEASE  -
|  1> ! pbe0 d3bj aug-cc-PVTZ RIJCOSX Opt
|  2> %maxcore 4000
|  3> %basis
|  4>  AuxJ "aug-cc-PVTZ/JK"
|  5>  AuxC "aug-cc-PVTZ/C"
|  6>  newGTO H "cc-PVTZ" end
|  7>  newAuxJGTO H "cc-PVTZ/JK" end
|  8>  newAuxCGTO H "cc-PVTZ/C" end
|  9> end
| 10> %cpcm
| 11>  SMD true
| 12>  SMDsolvent "dichloromethane"
| 13> end
| 14> %pal nprocs 4 end
| 15> * xyz 0 1
| 16> C          4.77420        1.63780        1.76330
| 17> C          3.81630        0.77330        1.01460
| 18> C          3.88450        0.52050       -0.31330
| 19> C          2.90810       -0.33290       -0.90840
| 20> O          2.92630       -0.57610       -2.22540
| 21> C          1.91360       -0.86660       -0.12770
| 22> C          0.93720       -1.85680       -0.69260
| 23> O          1.32790       -2.85030       -1.26890
| 24> C         -0.48320       -1.56900       -0.50450
| 25> C         -0.97210       -0.36870       -0.16210
| 26> C         -2.36670       -0.01160        0.00320
| 27> C         -2.68450        1.28840        0.40560
| 28> C         -4.00130        1.67060        0.57940
| 29> C         -5.02800        0.77430        0.35400
| 30> C         -4.72930       -0.52660       -0.04770
| 31> O         -5.76350       -1.38110       -0.26130
| 32> C         -3.40970       -0.91280       -0.22110
| 33> C          1.86060       -0.58470        1.28590
| 34> O          1.05850       -0.99880        2.08230
| 35> O          2.85470        0.25690        1.77900
| 36> H          5.53160        2.04190        1.09990
| 37> H          5.25080        1.05610        2.55030
| 38> H          4.23510        2.45280        2.24290
| 39> H          4.66780        0.95090       -0.91650
| 40> H          3.70140       -0.17760       -2.64210
| 41> H         -1.12870       -2.40770       -0.72070
| 42> H         -0.27690        0.44310        0.01320
| 43> H         -1.88930        1.99570        0.58790
| 44> H         -4.23310        2.67730        0.89340
| 45> H         -6.06130        1.05400        0.48210
| 46> H         -5.42750       -2.24770       -0.52110
| 47> H         -3.19390       -1.92450       -0.53350
| 48> *
| 49>
| 50>
| 51> $new_job
| 52> ! b2plyp aug-cc-PVTZ RIJCOSX SP
| 53> %maxcore 4000
| 54> %basis
| 55>  AuxJ "aug-cc-PVTZ/JK"
| 56>  AuxC "aug-cc-PVTZ/C"
| 57>  newGTO H "cc-PVTZ" end
| 58>  newAuxJGTO H "cc-PVTZ/JK" end
| 59>  newAuxCGTO H "cc-PVTZ/C" end
| 60> end
| 61> %cpcm
| 62>  SMD true
| 63>  SMDsolvent "dichloromethane"
| 64> end
| 65> %pal nprocs 4 end
| 66> %tddft
| 67>  nroots 10
| 68>  maxdim 7
| 69> end
| 70> * xyzfile 0 1
| 71>
| 72>                          ****END OF INPUT****
 Total Charge           Charge          ....    0
 Multiplicity           Mult            ....    1
 Number of Electrons    NEL             ....  142
Dispersion correction           -0.034863569
FINAL SINGLE POINT ENERGY      -954.265082170199
Dispersion correction            ... done
Dispersion correction           -0.034698424
FINAL SINGLE POINT ENERGY      -954.266541068121
Dispersion correction            ... done
Dispersion correction           -0.034726054
FINAL SINGLE POINT ENERGY      -954.266869984284
Dispersion correction            ... done
FINAL SINGLE POINT ENERGY      -954.267322474905
FINAL SINGLE POINT ENERGY      -954.267372038881
FINAL SINGLE POINT ENERGY      -954.267388498511
FINAL SINGLE POINT ENERGY      -954.267391334658
FINAL SINGLE POINT ENERGY      -954.267404683909
FINAL SINGLE POINT ENERGY      -954.267417561954
FINAL SINGLE POINT ENERGY      -954.267425214219
Dispersion correction            ... done
Dispersion correction           -0.034772026
FINAL SINGLE POINT ENERGY      -954.267433932702
Dispersion correction            ... done
                    ***********************HURRAY********************
Dispersion correction           -0.034773721
FINAL SINGLE POINT ENERGY      -954.267435163305

CARTESIAN COORDINATES (ANGSTROEM)
---------------------------------
  C      4.749784    1.736143    1.641885
  C      3.816136    0.812856    0.964890
  C      3.750371    0.589668   -0.362639
  C      2.786718   -0.330910   -0.852374
  O      2.678911   -0.562559   -2.160459
  C      1.939823   -0.977656    0.008526
  C      0.939706   -1.982319   -0.483054
  O      1.323240   -3.043327   -0.947486
  C     -0.481007   -1.662351   -0.413005
  C     -0.946824   -0.463410   -0.033712
  C     -2.338541   -0.051046    0.048247
  C     -2.618951    1.232406    0.522155
  C     -3.931995    1.667207    0.621564
  C     -4.976941    0.839585    0.251146
  C     -4.702847   -0.442071   -0.225233
  O     -5.758369   -1.213666   -0.577472
  C     -3.395443   -0.886828   -0.325816
  C      2.043847   -0.744163    1.410645
  O      1.402564   -1.271684    2.292131
  O      2.997836    0.180575    1.817290
  H      5.391979    2.230950    0.916184
  H      5.368437    1.185772    2.355298
  H      4.192191    2.489520    2.203870
  H      4.417466    1.111400   -1.035815
  H      3.322906   -0.029968   -2.647212
  H     -1.141434   -2.468032   -0.715168
  H     -0.228640    0.301030    0.250120
  H     -1.801702    1.881330    0.813643
  H     -4.145712    2.662555    0.991988
  H     -6.006337    1.168796    0.324002
  H     -5.443181   -2.073269   -0.883340
  H     -3.204390   -1.886432   -0.700700

 Multiplicity           Mult            ....    1
 Number of Electrons    NEL             ....  142
 Basis Dimension        Dim             .... 1088

ORBITAL ENERGIES
----------------

  NO   OCC          E(Eh)            E(eV)
   0   2.0000     -19.804872      -538.9180
   1   2.0000     -19.788480      -538.4719
   2   2.0000     -19.760836      -537.7197
   3   2.0000     -19.718407      -536.5651
   4   2.0000     -19.705601      -536.2167
   5   2.0000     -10.762467      -292.8616
   6   2.0000     -10.729708      -291.9702
   7   2.0000     -10.721020      -291.7338
   8   2.0000     -10.718602      -291.6680
   9   2.0000     -10.688045      -290.8365
  10   2.0000     -10.644383      -289.6484
  11   2.0000     -10.638440      -289.4867
  12   2.0000     -10.628692      -289.2214
  13   2.0000     -10.628326      -289.2115
  14   2.0000     -10.624753      -289.1142
  15   2.0000     -10.621752      -289.0326
  16   2.0000     -10.620580      -289.0007
  17   2.0000     -10.620335      -288.9940
  18   2.0000     -10.620251      -288.9917
  19   2.0000     -10.618855      -288.9537
  20   2.0000      -1.281649       -34.8755
  21   2.0000      -1.246056       -33.9069
  22   2.0000      -1.212834       -33.0029
  23   2.0000      -1.189530       -32.3688
  24   2.0000      -1.176173       -32.0053
  25   2.0000      -0.994430       -27.0598
  26   2.0000      -0.962814       -26.1995
  27   2.0000      -0.934652       -25.4332
  28   2.0000      -0.920578       -25.0502
  29   2.0000      -0.866625       -23.5821
  30   2.0000      -0.860108       -23.4047
  31   2.0000      -0.834133       -22.6979
  32   2.0000      -0.767000       -20.8711
  33   2.0000      -0.763695       -20.7812
  34   2.0000      -0.744832       -20.2679
  35   2.0000      -0.718164       -19.5422
  36   2.0000      -0.680819       -18.5260
  37   2.0000      -0.661711       -18.0061
  38   2.0000      -0.650393       -17.6981
  39   2.0000      -0.628755       -17.1093
  40   2.0000      -0.615242       -16.7416
  41   2.0000      -0.593552       -16.1514
  42   2.0000      -0.576388       -15.6843
  43   2.0000      -0.570278       -15.5181
  44   2.0000      -0.553775       -15.0690
  45   2.0000      -0.544000       -14.8030
  46   2.0000      -0.537180       -14.6174
  47   2.0000      -0.525412       -14.2972
  48   2.0000      -0.516014       -14.0414
  49   2.0000      -0.508536       -13.8380
  50   2.0000      -0.506614       -13.7857
  51   2.0000      -0.496381       -13.5072
  52   2.0000      -0.495906       -13.4943
  53   2.0000      -0.487985       -13.2788
  54   2.0000      -0.478306       -13.0154
  55   2.0000      -0.474726       -12.9180
  56   2.0000      -0.473160       -12.8753
  57   2.0000      -0.454237       -12.3604
  58   2.0000      -0.446574       -12.1519
  59   2.0000      -0.440037       -11.9740
  60   2.0000      -0.426536       -11.6066
  61   2.0000      -0.424546       -11.5525
  62   2.0000      -0.419288       -11.4094
  63   2.0000      -0.413694       -11.2572
  64   2.0000      -0.363363        -9.8876
  65   2.0000      -0.350396        -9.5348
  66   2.0000      -0.347362        -9.4522
  67   2.0000      -0.333205        -9.0670
  68   2.0000      -0.285173        -7.7600
  69   2.0000      -0.276423        -7.5218
  70   2.0000      -0.266077        -7.2403
  71   0.0000      -0.029592        -0.8052
  72   0.0000       0.002463         0.0670
  73   0.0000       0.015462         0.4208
  74   0.0000       0.022672         0.6169
  75   0.0000       0.029455         0.8015

MULLIKEN ATOMIC CHARGES
-----------------------
   0 C :   -0.575069
   1 C :    0.780452
   2 C :   -0.609896
   3 C :    0.259763
   4 O :   -0.681614
   5 C :    1.150686
   6 C :    0.751079
   7 O :   -0.970665
   8 C :   -0.539482
   9 C :   -0.101254
  10 C :    1.893376
  11 C :   -0.604600
  12 C :   -0.402133
  13 C :   -0.445210
  14 C :    0.749603
  15 O :   -0.656385
  16 C :   -0.929594
  17 C :    0.519382
  18 O :   -0.970671
  19 O :   -0.473346
  20 H :    0.189806
  21 H :    0.200529
  22 H :    0.201132
  23 H :    0.117154
  24 H :    0.227445
  25 H :    0.068000
  26 H :    0.005963
  27 H :    0.151583
  28 H :    0.217535
  29 H :    0.231790
  30 H :    0.223874
  31 H :    0.020767
Sum of atomic charges:    0.0000000

LOEWDIN ATOMIC CHARGES
----------------------
   0 C :    0.074435
   1 C :   -0.689179
   2 C :    0.023526
   3 C :   -0.598890
   4 O :    0.621599
   5 C :   -0.242229
   6 C :   -0.716283
   7 O :    0.433921
   8 C :   -0.031140
   9 C :   -0.051618
  10 C :   -0.408509
  11 C :   -0.069850
  12 C :   -0.117062
  13 C :   -0.064481
  14 C :   -0.697498
  15 O :    0.536422
  16 C :    0.006019
  17 C :   -0.867540
  18 O :    0.418520
  19 O :    0.573776
  20 H :    0.135399
  21 H :    0.136012
  22 H :    0.135654
  23 H :    0.198558
  24 H :    0.044309
  25 H :    0.203375
  26 H :    0.235549
  27 H :    0.190525
  28 H :    0.174675
  29 H :    0.183930
  30 H :    0.023753
  31 H :    0.204324

  Mayer bond orders larger than 0.100000
B(  0-C ,  1-C ) :   0.4323 B(  0-C ,  2-C ) :   0.1741 B(  0-C , 20-H ) :   1.0399
B(  0-C , 21-H ) :   1.0018 B(  0-C , 22-H ) :   1.0025 B(  1-C ,  2-C ) :   1.0059
B(  1-C ,  5-C ) :  -0.1861 B(  1-C , 17-C ) :   0.2058 B(  1-C , 19-O ) :   1.0505
B(  1-C , 20-H ) :  -0.1086 B(  1-C , 23-H ) :  -0.1585 B(  2-C ,  3-C ) :   1.0976
B(  2-C , 23-H ) :   1.1752 B(  3-C ,  4-O ) :   0.8130 B(  3-C ,  5-C ) :   1.2145
B(  3-C ,  6-C ) :   0.1016 B(  3-C ,  7-O ) :   0.1467 B(  4-O , 24-H ) :   0.9797
B(  5-C ,  6-C ) :   0.4864 B(  5-C ,  8-C ) :   0.1433 B(  5-C ,  9-C ) :  -0.1257
B(  5-C , 17-C ) :   0.8607 B(  5-C , 18-O ) :  -0.1082 B(  6-C ,  7-O ) :   0.7716
B(  6-C ,  8-C ) :   0.5808 B(  6-C , 25-H ) :  -0.1596 B(  7-O ,  9-C ) :   0.1435
B(  8-C ,  9-C ) :   0.8909 B(  8-C , 11-C ) :   0.1438 B(  8-C , 25-H ) :   1.2945
B(  9-C , 10-C ) :  -0.1164 B(  9-C , 13-C ) :   0.1325 B(  9-C , 16-C ) :   0.2297
B(  9-C , 25-H ) :  -0.1738 B(  9-C , 26-H ) :   1.3711 B( 10-C , 11-C ) :   0.2952
B( 10-C , 12-C ) :  -0.1509 B( 10-C , 13-C ) :  -0.1953 B( 10-C , 14-C ) :  -0.1146
B( 10-C , 16-C ) :   0.3180 B( 10-C , 26-H ) :  -0.2014 B( 10-C , 27-H ) :  -0.1313
B( 10-C , 31-H ) :  -0.1590 B( 11-C , 12-C ) :   1.2934 B( 11-C , 16-C ) :   0.1073
B( 11-C , 27-H ) :   1.1164 B( 12-C , 13-C ) :   1.1590 B( 12-C , 28-H ) :   0.9845
B( 13-C , 14-C ) :   1.0657 B( 13-C , 29-H ) :   0.9696 B( 14-C , 15-O ) :   0.6174
B( 14-C , 16-C ) :   1.1919 B( 15-O , 30-H ) :   0.9638 B( 16-C , 31-H ) :   1.3076
B( 17-C , 18-O ) :   0.9738 B( 17-C , 19-O ) :   0.7234

MP2 TOTAL ENERGY:     -954.594702675 Eh

-----------------------------------------------------------------------------
         ABSORPTION SPECTRUM VIA TRANSITION ELECTRIC DIPOLE MOMENTS
-----------------------------------------------------------------------------
State   Energy    Wavelength  fosc         T2        TX        TY        TZ
        (cm-1)      (nm)                 (au**2)    (au)      (au)      (au)
-----------------------------------------------------------------------------
   1   28691.3    348.5   0.067947890   0.77965   0.87269  -0.13269   0.02145
   2   31958.8    312.9   0.680876814   7.01381  -2.33583   1.19661   0.35474
   3   32529.4    307.4   0.074942221   0.75845   0.42305   0.71202   0.26927
   4   34955.2    286.1   0.227595716   2.14352  -1.30680   0.63659   0.17476
   5   37374.5    267.6   0.244418898   2.15295   0.88948   1.16685  -0.01573
   6   40838.1    244.9   0.010243083   0.08257   0.20703   0.19727   0.02816
   7   45057.1    221.9   0.002592575   0.01894  -0.08664  -0.04285  -0.09798
   8   45657.6    219.0   0.005404040   0.03897   0.15195  -0.08993   0.08825
   9   44266.7    225.9   0.098571663   0.73308  -0.71152  -0.43599  -0.19165
  10   48272.4    207.2   0.001077075   0.00735  -0.02675   0.06905  -0.04315

Dispersion correction           -0.031122735
FINAL SINGLE POINT ENERGY      -953.324460745748

DIPOLE MOMENT
-------------
                                X             Y             Z
Electronic contribution:      0.96934      -6.87299      -1.50969
Nuclear contribution   :      0.60783      10.07148       0.01600
                        -----------------------------------------
Total Dipole Moment    :      1.57717       3.19849      -1.49369
                        -----------------------------------------
Magnitude (a.u.)       :      3.86638
Magnitude (Debye)      :      9.82756

Rotational constants in cm-1:     0.022187     0.005341     0.004866
Rotational constants in MHz :   665.149784   160.120038   145.865760

                             ****ORCA TERMINATED NORMALLY****
TOTAL RUN TIME: 0 days 7 hours 22 minutes 12 seconds 625 msec
