                         Program Version 5.0.2 -  RELEASE  -
|  1> ! pbe0 d3bj aug-cc-PVTZ RIJCOSX Opt
|  2> %maxcore 4000
|  3> %basis
|  4>  AuxJ "aug-cc-PVTZ/JK"
|  5>  AuxC "aug-cc-PVTZ/C"
|  6>  newGTO H "cc-PVTZ" end
|  7>  newAuxJGTO H "cc-PVTZ/JK" end
|  8>  newAuxCGTO H "cc-PVTZ/C" end
|  9> end
| 10> %cpcm
| 11>  SMD true
| 12>  SMDsolvent "dichloromethane"
| 13> end
| 14> %pal nprocs 4 end
| 15> * xyz 0 1
| 16> C          4.77420        1.63780        1.76330
| 17> C          3.81630        0.77330        1.01460
| 18> C          3.88450        0.52050       -0.31330
| 19> C          2.90810       -0.33290       -0.90840
| 20> O          2.92630       -0.57610       -2.22540
| 21> C          1.91360       -0.86660       -0.12770
| 22> C          0.93720       -1.85680       -0.69260
| 23> O          1.32790       -2.85030       -1.26890
| 24> C         -0.48320       -1.56900       -0.50450
| 25> C         -0.97210       -0.36870       -0.16210
| 26> C         -2.36670       -0.01160        0.00320
| 27> C         -2.68450        1.28840        0.40560
| 28> C         -4.00130        1.67060        0.57940
| 29> C         -5.02800        0.77430        0.35400
| 30> C         -4.72930       -0.52660       -0.04770
| 31> O         -5.76350       -1.38110       -0.26130
| 32> C         -3.40970       -0.91280       -0.22110
| 33> C          1.86060       -0.58470        1.28590
| 34> O          1.05850       -0.99880        2.08230
| 35> O          2.85470        0.25690        1.77900
| 36> H          5.53160        2.04190        1.09990
| 37> H          5.25080        1.05610        2.55030
| 38> H          4.23510        2.45280        2.24290
| 39> H          4.66780        0.95090       -0.91650
| 40> H          3.70140       -0.17760       -2.64210
| 41> H         -1.12870       -2.40770       -0.72070
| 42> H         -0.27690        0.44310        0.01320
| 43> H         -1.88930        1.99570        0.58790
| 44> H         -4.23310        2.67730        0.89340
| 45> H         -6.06130        1.05400        0.48210
| 46> H         -5.42750       -2.24770       -0.52110
| 47> H         -3.19390       -1.92450       -0.53350
| 48> *
| 49>
| 50>
| 51> $new_job
| 52> ! b2gp-plyp aug-cc-PVTZ RIJCOSX SP
| 53> %maxcore 4000
| 54> %basis
| 55>  AuxJ "aug-cc-PVTZ/JK"
| 56>  AuxC "aug-cc-PVTZ/C"
| 57>  newGTO H "cc-PVTZ" end
| 58>  newAuxJGTO H "cc-PVTZ/JK" end
| 59>  newAuxCGTO H "cc-PVTZ/C" end
| 60> end
| 61> %cpcm
| 62>  SMD true
| 63>  SMDsolvent "dichloromethane"
| 64> end
| 65> %pal nprocs 4 end
| 66> %tddft
| 67>  nroots 10
| 68>  maxdim 7
| 69> end
| 70> * xyzfile 0 1
| 71>
| 72>                          ****END OF INPUT****
 Total Charge           Charge          ....    0
 Multiplicity           Mult            ....    1
 Number of Electrons    NEL             ....  142
Dispersion correction           -0.034863569
FINAL SINGLE POINT ENERGY      -954.265082170199
Dispersion correction            ... done
Dispersion correction           -0.034698424
FINAL SINGLE POINT ENERGY      -954.266541068121
Dispersion correction            ... done
Dispersion correction           -0.034726054
FINAL SINGLE POINT ENERGY      -954.266869984284
Dispersion correction            ... done
FINAL SINGLE POINT ENERGY      -954.267322474905
FINAL SINGLE POINT ENERGY      -954.267372038881
FINAL SINGLE POINT ENERGY      -954.267388498511
FINAL SINGLE POINT ENERGY      -954.267391334658
FINAL SINGLE POINT ENERGY      -954.267404683909
FINAL SINGLE POINT ENERGY      -954.267417561954
FINAL SINGLE POINT ENERGY      -954.267425214219
Dispersion correction            ... done
Dispersion correction           -0.034772026
FINAL SINGLE POINT ENERGY      -954.267433932702
Dispersion correction            ... done
                    ***********************HURRAY********************
Dispersion correction           -0.034773721
FINAL SINGLE POINT ENERGY      -954.267435163305

CARTESIAN COORDINATES (ANGSTROEM)
---------------------------------
  C      4.749784    1.736143    1.641885
  C      3.816136    0.812856    0.964890
  C      3.750371    0.589668   -0.362639
  C      2.786718   -0.330910   -0.852374
  O      2.678911   -0.562559   -2.160459
  C      1.939823   -0.977656    0.008526
  C      0.939706   -1.982319   -0.483054
  O      1.323240   -3.043327   -0.947486
  C     -0.481007   -1.662351   -0.413005
  C     -0.946824   -0.463410   -0.033712
  C     -2.338541   -0.051046    0.048247
  C     -2.618951    1.232406    0.522155
  C     -3.931995    1.667207    0.621564
  C     -4.976941    0.839585    0.251146
  C     -4.702847   -0.442071   -0.225233
  O     -5.758369   -1.213666   -0.577472
  C     -3.395443   -0.886828   -0.325816
  C      2.043847   -0.744163    1.410645
  O      1.402564   -1.271684    2.292131
  O      2.997836    0.180575    1.817290
  H      5.391979    2.230950    0.916184
  H      5.368437    1.185772    2.355298
  H      4.192191    2.489520    2.203870
  H      4.417466    1.111400   -1.035815
  H      3.322906   -0.029968   -2.647212
  H     -1.141434   -2.468032   -0.715168
  H     -0.228640    0.301030    0.250120
  H     -1.801702    1.881330    0.813643
  H     -4.145712    2.662555    0.991988
  H     -6.006337    1.168796    0.324002
  H     -5.443181   -2.073269   -0.883340
  H     -3.204390   -1.886432   -0.700700

 Multiplicity           Mult            ....    1
 Number of Electrons    NEL             ....  142
 Basis Dimension        Dim             .... 1088

ORBITAL ENERGIES
----------------

  NO   OCC          E(Eh)            E(eV)
   0   2.0000     -20.021236      -544.8055
   1   2.0000     -20.004607      -544.3530
   2   2.0000     -19.975711      -543.5667
   3   2.0000     -19.933546      -542.4194
   4   2.0000     -19.920928      -542.0760
   5   2.0000     -10.927054      -297.3402
   6   2.0000     -10.893424      -296.4251
   7   2.0000     -10.884081      -296.1709
   8   2.0000     -10.881124      -296.0904
   9   2.0000     -10.848929      -295.2144
  10   2.0000     -10.805423      -294.0305
  11   2.0000     -10.798806      -293.8504
  12   2.0000     -10.788018      -293.5569
  13   2.0000     -10.787399      -293.5401
  14   2.0000     -10.785047      -293.4760
  15   2.0000     -10.781616      -293.3827
  16   2.0000     -10.780297      -293.3468
  17   2.0000     -10.780153      -293.3429
  18   2.0000     -10.779864      -293.3350
  19   2.0000     -10.778756      -293.3049
  20   2.0000      -1.338133       -36.4125
  21   2.0000      -1.301044       -35.4032
  22   2.0000      -1.266413       -34.4608
  23   2.0000      -1.243608       -33.8403
  24   2.0000      -1.230290       -33.4779
  25   2.0000      -1.041500       -28.3407
  26   2.0000      -1.008957       -27.4551
  27   2.0000      -0.979628       -26.6570
  28   2.0000      -0.964807       -26.2537
  29   2.0000      -0.909107       -24.7381
  30   2.0000      -0.902439       -24.5566
  31   2.0000      -0.875312       -23.8184
  32   2.0000      -0.804384       -21.8884
  33   2.0000      -0.800614       -21.7858
  34   2.0000      -0.781184       -21.2571
  35   2.0000      -0.753533       -20.5047
  36   2.0000      -0.715684       -19.4747
  37   2.0000      -0.694646       -18.9023
  38   2.0000      -0.683949       -18.6112
  39   2.0000      -0.659532       -17.9468
  40   2.0000      -0.646788       -17.6000
  41   2.0000      -0.624609       -16.9965
  42   2.0000      -0.606841       -16.5130
  43   2.0000      -0.601039       -16.3551
  44   2.0000      -0.584098       -15.8941
  45   2.0000      -0.574476       -15.6323
  46   2.0000      -0.568611       -15.4727
  47   2.0000      -0.555035       -15.1033
  48   2.0000      -0.546440       -14.8694
  49   2.0000      -0.538399       -14.6506
  50   2.0000      -0.534711       -14.5502
  51   2.0000      -0.524537       -14.2734
  52   2.0000      -0.524435       -14.2706
  53   2.0000      -0.514189       -13.9918
  54   2.0000      -0.505550       -13.7567
  55   2.0000      -0.502996       -13.6872
  56   2.0000      -0.500542       -13.6204
  57   2.0000      -0.480192       -13.0667
  58   2.0000      -0.472027       -12.8445
  59   2.0000      -0.467420       -12.7191
  60   2.0000      -0.452173       -12.3043
  61   2.0000      -0.449384       -12.2284
  62   2.0000      -0.443783       -12.0760
  63   2.0000      -0.438688       -11.9373
  64   2.0000      -0.391498       -10.6532
  65   2.0000      -0.370492       -10.0816
  66   2.0000      -0.368000       -10.0138
  67   2.0000      -0.359904        -9.7935
  68   2.0000      -0.300498        -8.1770
  69   2.0000      -0.293157        -7.9772
  70   2.0000      -0.280350        -7.6287
  71   0.0000      -0.012154        -0.3307
  72   0.0000       0.020165         0.5487
  73   0.0000       0.022320         0.6073
  74   0.0000       0.029050         0.7905
  75   0.0000       0.035359         0.9622

MULLIKEN ATOMIC CHARGES
-----------------------
   0 C :   -0.600298
   1 C :    0.782746
   2 C :   -0.632795
   3 C :    0.288267
   4 O :   -0.699410
   5 C :    1.189127
   6 C :    0.737023
   7 O :   -0.981822
   8 C :   -0.556925
   9 C :   -0.114483
  10 C :    1.899720
  11 C :   -0.590986
  12 C :   -0.415936
  13 C :   -0.448578
  14 C :    0.749134
  15 O :   -0.671032
  16 C :   -0.941638
  17 C :    0.502582
  18 O :   -0.985609
  19 O :   -0.476880
  20 H :    0.200340
  21 H :    0.211484
  22 H :    0.212404
  23 H :    0.127706
  24 H :    0.232920
  25 H :    0.078462
  26 H :    0.021226
  27 H :    0.163021
  28 H :    0.225544
  29 H :    0.242921
  30 H :    0.228689
  31 H :    0.023077
Sum of atomic charges:   -0.0000000

LOEWDIN ATOMIC CHARGES
----------------------
   0 C :    0.076866
   1 C :   -0.687315
   2 C :    0.025271
   3 C :   -0.596463
   4 O :    0.618824
   5 C :   -0.238174
   6 C :   -0.715397
   7 O :    0.428637
   8 C :   -0.029787
   9 C :   -0.051041
  10 C :   -0.409213
  11 C :   -0.069655
  12 C :   -0.117315
  13 C :   -0.063735
  14 C :   -0.697247
  15 O :    0.532055
  16 C :    0.006813
  17 C :   -0.864992
  18 O :    0.413907
  19 O :    0.570768
  20 H :    0.135345
  21 H :    0.136013
  22 H :    0.135645
  23 H :    0.198424
  24 H :    0.044594
  25 H :    0.203393
  26 H :    0.235848
  27 H :    0.190656
  28 H :    0.175052
  29 H :    0.184077
  30 H :    0.023766
  31 H :    0.204380

  Mayer bond orders larger than 0.100000
B(  0-C ,  1-C ) :   0.4297 B(  0-C ,  2-C ) :   0.1792 B(  0-C , 20-H ) :   1.0377
B(  0-C , 21-H ) :   1.0006 B(  0-C , 22-H ) :   1.0013 B(  1-C ,  2-C ) :   1.0028
B(  1-C ,  5-C ) :  -0.1928 B(  1-C , 17-C ) :   0.2062 B(  1-C , 19-O ) :   1.0578
B(  1-C , 20-H ) :  -0.1089 B(  1-C , 23-H ) :  -0.1619 B(  2-C ,  3-C ) :   1.0820
B(  2-C , 23-H ) :   1.1792 B(  3-C ,  4-O ) :   0.8334 B(  3-C ,  5-C ) :   1.2071
B(  3-C ,  7-O ) :   0.1484 B(  4-O , 24-H ) :   0.9799 B(  5-C ,  6-C ) :   0.4999
B(  5-C ,  8-C ) :   0.1503 B(  5-C ,  9-C ) :  -0.1199 B(  5-C , 17-C ) :   0.8564
B(  5-C , 18-O ) :  -0.1364 B(  6-C ,  7-O ) :   0.8306 B(  6-C ,  8-C ) :   0.6151
B(  6-C , 25-H ) :  -0.1573 B(  7-O ,  9-C ) :   0.1409 B(  8-C ,  9-C ) :   0.8930
B(  8-C , 11-C ) :   0.1435 B(  8-C , 25-H ) :   1.2988 B(  9-C , 13-C ) :   0.1292
B(  9-C , 16-C ) :   0.2303 B(  9-C , 25-H ) :  -0.1851 B(  9-C , 26-H ) :   1.3593
B( 10-C , 11-C ) :   0.2840 B( 10-C , 12-C ) :  -0.1647 B( 10-C , 13-C ) :  -0.1874
B( 10-C , 14-C ) :  -0.1070 B( 10-C , 16-C ) :   0.3057 B( 10-C , 26-H ) :  -0.1874
B( 10-C , 27-H ) :  -0.1349 B( 10-C , 31-H ) :  -0.1732 B( 11-C , 12-C ) :   1.2933
B( 11-C , 16-C ) :   0.1071 B( 11-C , 27-H ) :   1.1177 B( 12-C , 13-C ) :   1.1406
B( 12-C , 28-H ) :   0.9933 B( 13-C , 14-C ) :   1.0564 B( 13-C , 16-C ) :   0.1078
B( 13-C , 29-H ) :   0.9723 B( 14-C , 15-O ) :   0.6511 B( 14-C , 16-C ) :   1.2038
B( 15-O , 30-H ) :   0.9634 B( 16-C , 31-H ) :   1.3280 B( 17-C , 18-O ) :   1.0000
B( 17-C , 19-O ) :   0.7636

MP2 TOTAL ENERGY:     -954.414447030 Eh

-----------------------------------------------------------------------------
         ABSORPTION SPECTRUM VIA TRANSITION ELECTRIC DIPOLE MOMENTS
-----------------------------------------------------------------------------
State   Energy    Wavelength  fosc         T2        TX        TY        TZ
        (cm-1)      (nm)                 (au**2)    (au)      (au)      (au)
-----------------------------------------------------------------------------
   1   30227.5    330.8   0.110610158   1.20467  -1.06174   0.27652   0.03010
   2   33298.2    300.3   0.750335882   7.41841   2.38803  -1.25387  -0.37883
   3   34450.7    290.3   0.117642566   1.12419   0.80276   0.65462   0.22638
   4   36159.3    276.6   0.123939952   1.12841  -0.34492   0.98510   0.19752
   5   37626.0    265.8   0.187971884   1.64468  -0.96266  -0.84028   0.10901
   6   46583.1    214.7   0.001369171   0.00968  -0.01679   0.04086  -0.08789
   7   47039.0    212.6   0.016942360   0.11857   0.28616  -0.17482   0.07826
   8   45313.1    220.7   0.117110365   0.85084   0.74983  -0.52795  -0.09933
   9   45703.4    218.8   0.179776932   1.29497   1.00584   0.47877   0.23244
  10   49655.5    201.4   0.018504148   0.12268  -0.21037   0.27984   0.01087

Dispersion correction           -0.023186140
FINAL SINGLE POINT ENERGY      -952.821484768558

DIPOLE MOMENT
-------------
                                X             Y             Z
Electronic contribution:      1.03576      -6.82582      -1.50406
Nuclear contribution   :      0.60783      10.07148       0.01600
                        -----------------------------------------
Total Dipole Moment    :      1.64359       3.24565      -1.48806
                        -----------------------------------------
Magnitude (a.u.)       :      3.93065
Magnitude (Debye)      :      9.99091

Rotational constants in cm-1:     0.022187     0.005341     0.004866
Rotational constants in MHz :   665.149784   160.120038   145.865760

                             ****ORCA TERMINATED NORMALLY****
TOTAL RUN TIME: 0 days 6 hours 26 minutes 47 seconds 183 msec
