                         Program Version 5.0.2 -  RELEASE  -
|  1> ! pbe0 aug-cc-PVTZ RIJCOSX Opt
|  2> %maxcore 4000
|  3> %basis
|  4>  AuxJ "aug-cc-PVTZ/JK"
|  5>  AuxC "aug-cc-PVTZ/C"
|  6>  newGTO H "cc-PVTZ" end
|  7>  newAuxJGTO H "cc-PVTZ/JK" end
|  8>  newAuxCGTO H "cc-PVTZ/C" end
|  9> end
| 10> %cpcm
| 11>  SMD true
| 12>  SMDsolvent "dichloromethane"
| 13> end
| 14> %pal nprocs 4 end
| 15> * xyz 0 1
| 16> C          4.77420        1.63780        1.76330
| 17> C          3.81630        0.77330        1.01460
| 18> C          3.88450        0.52050       -0.31330
| 19> C          2.90810       -0.33290       -0.90840
| 20> O          2.92630       -0.57610       -2.22540
| 21> C          1.91360       -0.86660       -0.12770
| 22> C          0.93720       -1.85680       -0.69260
| 23> O          1.32790       -2.85030       -1.26890
| 24> C         -0.48320       -1.56900       -0.50450
| 25> C         -0.97210       -0.36870       -0.16210
| 26> C         -2.36670       -0.01160        0.00320
| 27> C         -2.68450        1.28840        0.40560
| 28> C         -4.00130        1.67060        0.57940
| 29> C         -5.02800        0.77430        0.35400
| 30> C         -4.72930       -0.52660       -0.04770
| 31> O         -5.76350       -1.38110       -0.26130
| 32> C         -3.40970       -0.91280       -0.22110
| 33> C          1.86060       -0.58470        1.28590
| 34> O          1.05850       -0.99880        2.08230
| 35> O          2.85470        0.25690        1.77900
| 36> H          5.53160        2.04190        1.09990
| 37> H          5.25080        1.05610        2.55030
| 38> H          4.23510        2.45280        2.24290
| 39> H          4.66780        0.95090       -0.91650
| 40> H          3.70140       -0.17760       -2.64210
| 41> H         -1.12870       -2.40770       -0.72070
| 42> H         -0.27690        0.44310        0.01320
| 43> H         -1.88930        1.99570        0.58790
| 44> H         -4.23310        2.67730        0.89340
| 45> H         -6.06130        1.05400        0.48210
| 46> H         -5.42750       -2.24770       -0.52110
| 47> H         -3.19390       -1.92450       -0.53350
| 48> *
| 49>
| 50>
| 51> $new_job
| 52> ! pbe0 aug-cc-PVTZ RIJCOSX SP
| 53> %maxcore 4000
| 54> %basis
| 55>  AuxJ "aug-cc-PVTZ/JK"
| 56>  AuxC "aug-cc-PVTZ/C"
| 57>  newGTO H "cc-PVTZ" end
| 58>  newAuxJGTO H "cc-PVTZ/JK" end
| 59>  newAuxCGTO H "cc-PVTZ/C" end
| 60> end
| 61> %cpcm
| 62>  SMD true
| 63>  SMDsolvent "dichloromethane"
| 64> end
| 65> %pal nprocs 4 end
| 66> %tddft
| 67>  nroots 10
| 68>  maxdim 7
| 69> end
| 70> * xyzfile 0 1
| 71>
| 72>                          ****END OF INPUT****
 Total Charge           Charge          ....    0
 Multiplicity           Mult            ....    1
 Number of Electrons    NEL             ....  142
FINAL SINGLE POINT ENERGY      -954.230218600823
FINAL SINGLE POINT ENERGY      -954.231823782904
FINAL SINGLE POINT ENERGY      -954.232103316619
FINAL SINGLE POINT ENERGY      -954.232579999720
FINAL SINGLE POINT ENERGY      -954.232626518787
FINAL SINGLE POINT ENERGY      -954.232648242639
FINAL SINGLE POINT ENERGY      -954.232656646002
FINAL SINGLE POINT ENERGY      -954.232666765768
FINAL SINGLE POINT ENERGY      -954.232679364130
FINAL SINGLE POINT ENERGY      -954.232685447539
FINAL SINGLE POINT ENERGY      -954.232690765361
                    ***********************HURRAY********************
FINAL SINGLE POINT ENERGY      -954.232691361490

CARTESIAN COORDINATES (ANGSTROEM)
---------------------------------
  C      4.802357    1.717417    1.639734
  C      3.852597    0.808326    0.964195
  C      3.786871    0.577734   -0.362374
  C      2.807724   -0.327923   -0.850597
  O      2.704965   -0.566931   -2.157973
  C      1.942247   -0.952404    0.010233
  C      0.934432   -1.952561   -0.479118
  O      1.315019   -3.013617   -0.946641
  C     -0.488968   -1.637516   -0.407150
  C     -0.968842   -0.443213   -0.029061
  C     -2.366504   -0.044399    0.049487
  C     -2.661505    1.236104    0.523973
  C     -3.979204    1.658186    0.620790
  C     -5.015605    0.821133    0.247041
  C     -4.727794   -0.457346   -0.230264
  O     -5.775215   -1.238744   -0.586166
  C     -3.415504   -0.889399   -0.328098
  C      2.050351   -0.715391    1.412521
  O      1.403327   -1.230845    2.297012
  O      3.018716    0.196606    1.816714
  H      5.456105    2.196794    0.913816
  H      5.409070    1.159139    2.357463
  H      4.258468    2.484246    2.197110
  H      4.466430    1.081832   -1.036874
  H      3.362501   -0.050408   -2.644229
  H     -1.141801   -2.449210   -0.710785
  H     -0.259858    0.329135    0.257239
  H     -1.852162    1.893771    0.818568
  H     -4.203082    2.651209    0.992032
  H     -6.048383    1.140655    0.317961
  H     -5.452080   -2.095223   -0.892624
  H     -3.215072   -1.887058   -0.703837

 Multiplicity           Mult            ....    1
 Number of Electrons    NEL             ....  142
 Basis Dimension        Dim             .... 1088

ORBITAL ENERGIES
----------------

  NO   OCC          E(Eh)            E(eV)
   0   2.0000     -19.286242      -524.8053
   1   2.0000     -19.269037      -524.3371
   2   2.0000     -19.244707      -523.6751
   3   2.0000     -19.200879      -522.4825
   4   2.0000     -19.187359      -522.1146
   5   2.0000     -10.358101      -281.8583
   6   2.0000     -10.330718      -281.1131
   7   2.0000     -10.324081      -280.9325
   8   2.0000     -10.321625      -280.8657
   9   2.0000     -10.296325      -280.1773
  10   2.0000     -10.253132      -279.0019
  11   2.0000     -10.250115      -278.9198
  12   2.0000     -10.241385      -278.6823
  13   2.0000     -10.239691      -278.6361
  14   2.0000     -10.234969      -278.5077
  15   2.0000     -10.233146      -278.4581
  16   2.0000     -10.232308      -278.4352
  17   2.0000     -10.232066      -278.4287
  18   2.0000     -10.230062      -278.3741
  19   2.0000     -10.229109      -278.3482
  20   2.0000      -1.161777       -31.6136
  21   2.0000      -1.129491       -30.7350
  22   2.0000      -1.100106       -29.9354
  23   2.0000      -1.075081       -29.2544
  24   2.0000      -1.061093       -28.8738
  25   2.0000      -0.896856       -24.4047
  26   2.0000      -0.865655       -23.5557
  27   2.0000      -0.840281       -22.8652
  28   2.0000      -0.828336       -22.5402
  29   2.0000      -0.778050       -21.1718
  30   2.0000      -0.772143       -21.0111
  31   2.0000      -0.748029       -20.3549
  32   2.0000      -0.690578       -18.7916
  33   2.0000      -0.686444       -18.6791
  34   2.0000      -0.669742       -18.2246
  35   2.0000      -0.645458       -17.5638
  36   2.0000      -0.609213       -16.5775
  37   2.0000      -0.593426       -16.1480
  38   2.0000      -0.580846       -15.8056
  39   2.0000      -0.565795       -15.3961
  40   2.0000      -0.549694       -14.9579
  41   2.0000      -0.530125       -14.4254
  42   2.0000      -0.513878       -13.9833
  43   2.0000      -0.507480       -13.8092
  44   2.0000      -0.491582       -13.3766
  45   2.0000      -0.481306       -13.0970
  46   2.0000      -0.472107       -12.8467
  47   2.0000      -0.463587       -12.6149
  48   2.0000      -0.453111       -12.3298
  49   2.0000      -0.448133       -12.1943
  50   2.0000      -0.447697       -12.1825
  51   2.0000      -0.440582       -11.9889
  52   2.0000      -0.437094       -11.8939
  53   2.0000      -0.434094       -11.8123
  54   2.0000      -0.422395       -11.4939
  55   2.0000      -0.419446       -11.4137
  56   2.0000      -0.414389       -11.2761
  57   2.0000      -0.399538       -10.8720
  58   2.0000      -0.392845       -10.6899
  59   2.0000      -0.382258       -10.4018
  60   2.0000      -0.377752       -10.2792
  61   2.0000      -0.372875       -10.1464
  62   2.0000      -0.369008       -10.0412
  63   2.0000      -0.360624        -9.8131
  64   2.0000      -0.319465        -8.6931
  65   2.0000      -0.306887        -8.3508
  66   2.0000      -0.301019        -8.1911
  67   2.0000      -0.277410        -7.5487
  68   2.0000      -0.259569        -7.0632
  69   2.0000      -0.246364        -6.7039
  70   2.0000      -0.242360        -6.5950
  71   0.0000      -0.079444        -2.1618
  72   0.0000      -0.047302        -1.2871
  73   0.0000      -0.009307        -0.2533
  74   0.0000      -0.000903        -0.0246
  75   0.0000       0.003200         0.0871

MULLIKEN ATOMIC CHARGES
-----------------------
   0 C :   -0.459764
   1 C :    0.630833
   2 C :   -0.517092
   3 C :    0.131564
   4 O :   -0.583654
   5 C :    0.874629
   6 C :    0.842057
   7 O :   -0.905414
   8 C :   -0.513163
   9 C :   -0.058519
  10 C :    1.523782
  11 C :   -0.658585
  12 C :   -0.352395
  13 C :   -0.432137
  14 C :    0.690524
  15 O :   -0.581855
  16 C :   -0.850585
  17 C :    0.516538
  18 O :   -0.896310
  19 O :   -0.383750
  20 H :    0.182667
  21 H :    0.188449
  22 H :    0.187805
  23 H :    0.148752
  24 H :    0.209722
  25 H :    0.079473
  26 H :    0.039432
  27 H :    0.178261
  28 H :    0.242006
  29 H :    0.241824
  30 H :    0.212781
  31 H :    0.072126
Sum of atomic charges:   -0.0000000

LOEWDIN ATOMIC CHARGES
----------------------
   0 C :    0.070658
   1 C :   -0.701050
   2 C :    0.016137
   3 C :   -0.610775
   4 O :    0.633474
   5 C :   -0.249882
   6 C :   -0.720448
   7 O :    0.450848
   8 C :   -0.037701
   9 C :   -0.056111
  10 C :   -0.411813
  11 C :   -0.073217
  12 C :   -0.118198
  13 C :   -0.067357
  14 C :   -0.702044
  15 O :    0.553503
  16 C :    0.001843
  17 C :   -0.878387
  18 O :    0.433994
  19 O :    0.584453
  20 H :    0.137075
  21 H :    0.137735
  22 H :    0.137308
  23 H :    0.200795
  24 H :    0.043632
  25 H :    0.205748
  26 H :    0.235862
  27 H :    0.192206
  28 H :    0.175999
  29 H :    0.185758
  30 H :    0.023696
  31 H :    0.206259

  Mayer bond orders larger than 0.100000
B(  0-C ,  1-C ) :   0.5724 B(  0-C ,  2-C ) :   0.1180 B(  0-C , 20-H ) :   1.0159
B(  0-C , 21-H ) :   0.9773 B(  0-C , 22-H ) :   0.9779 B(  1-C ,  2-C ) :   1.0776
B(  1-C ,  5-C ) :  -0.1494 B(  1-C , 17-C ) :   0.1918 B(  1-C , 19-O ) :   1.0722
B(  1-C , 23-H ) :  -0.1114 B(  2-C ,  3-C ) :   1.2235 B(  2-C , 23-H ) :   1.0749
B(  3-C ,  4-O ) :   0.7372 B(  3-C ,  5-C ) :   1.2735 B(  3-C ,  7-O ) :   0.1394
B(  4-O , 24-H ) :   0.9794 B(  5-C ,  6-C ) :   0.5260 B(  5-C ,  8-C ) :   0.1035
B(  5-C ,  9-C ) :  -0.1023 B(  5-C , 17-C ) :   0.9673 B(  5-C , 19-O ) :   0.1136
B(  6-C ,  7-O ) :   0.7081 B(  6-C ,  8-C ) :   0.5953 B(  6-C , 25-H ) :  -0.1418
B(  7-O ,  9-C ) :   0.1522 B(  8-C ,  9-C ) :   1.0406 B(  8-C , 11-C ) :   0.1110
B(  8-C , 25-H ) :   1.2245 B(  9-C , 13-C ) :   0.1262 B(  9-C , 16-C ) :   0.1140
B(  9-C , 25-H ) :  -0.1064 B(  9-C , 26-H ) :   1.2789 B( 10-C , 11-C ) :   0.5289
B( 10-C , 13-C ) :  -0.1932 B( 10-C , 14-C ) :  -0.1527 B( 10-C , 16-C ) :   0.5875
B( 10-C , 26-H ) :  -0.1559 B( 11-C , 12-C ) :   1.3110 B( 11-C , 16-C ) :   0.1302
B( 11-C , 27-H ) :   1.0366 B( 12-C , 13-C ) :   1.2941 B( 12-C , 28-H ) :   0.9107
B( 13-C , 14-C ) :   1.1511 B( 13-C , 29-H ) :   0.9075 B( 14-C , 15-O ) :   0.5782
B( 14-C , 16-C ) :   1.2128 B( 15-O , 30-H ) :   0.9639 B( 16-C , 31-H ) :   1.1625
B( 17-C , 18-O ) :   0.9504 B( 17-C , 19-O ) :   0.6707

-----------------------------------------------------------------------------
         ABSORPTION SPECTRUM VIA TRANSITION ELECTRIC DIPOLE MOMENTS
-----------------------------------------------------------------------------
State   Energy    Wavelength  fosc         T2        TX        TY        TZ
        (cm-1)      (nm)                 (au**2)    (au)      (au)      (au)
-----------------------------------------------------------------------------
   1   27600.2    362.3   0.042861744   0.51125  -0.70801  -0.03613  -0.09308
   2   30774.8    324.9   0.175676043   1.87929   1.24886  -0.55017  -0.13018
   3   31346.1    319.0   0.120414375   1.26465  -0.66794   0.84909   0.31233
   4   34953.3    286.1   0.720356968   6.78476  -2.50171   0.69630   0.20345
   5   37942.3    263.6   0.096559621   0.83781   0.63560  -0.65144  -0.09718
   6   38459.1    260.0   0.194972395   1.66898  -0.64473  -1.11742  -0.06839
   7   40779.8    245.2   0.012710650   0.10261  -0.28918  -0.13557  -0.02464
   8   41369.4    241.7   0.004654806   0.03704   0.17208   0.08518   0.01329
   9   41474.2    241.1   0.028428429   0.22566   0.38327   0.28064   0.00200
  10   42845.9    233.4   0.002157351   0.01658   0.06062  -0.07369   0.08643

FINAL SINGLE POINT ENERGY      -954.106935706253

DIPOLE MOMENT
-------------
                                X             Y             Z
Electronic contribution:      0.74566      -6.90472      -1.50565
Nuclear contribution   :      0.68616       9.89702       0.00634
                        -----------------------------------------
Total Dipole Moment    :      1.43182       2.99230      -1.49931
                        -----------------------------------------
Magnitude (a.u.)       :      3.64031
Magnitude (Debye)      :      9.25294

Rotational constants in cm-1:     0.022425     0.005273     0.004811
Rotational constants in MHz :   672.290887   158.079985   144.226581

                             ****ORCA TERMINATED NORMALLY****
TOTAL RUN TIME: 0 days 3 hours 15 minutes 12 seconds 705 msec
