                         Program Version 5.0.2 -  RELEASE  -
|  1> ! wb97x-d3 aug-cc-PVTZ RIJCOSX Opt
|  2> %maxcore 4000
|  3> %basis
|  4>  AuxJ "aug-cc-PVTZ/JK"
|  5>  AuxC "aug-cc-PVTZ/C"
|  6>  newGTO H "cc-PVTZ" end
|  7>  newAuxJGTO H "cc-PVTZ/JK" end
|  8>  newAuxCGTO H "cc-PVTZ/C" end
|  9> end
| 10> %cpcm
| 11>  SMD true
| 12>  SMDsolvent "dichloromethane"
| 13> end
| 14> %pal nprocs 4 end
| 15> * xyz 0 1
| 16> C          4.77420        1.63780        1.76330
| 17> C          3.81630        0.77330        1.01460
| 18> C          3.88450        0.52050       -0.31330
| 19> C          2.90810       -0.33290       -0.90840
| 20> O          2.92630       -0.57610       -2.22540
| 21> C          1.91360       -0.86660       -0.12770
| 22> C          0.93720       -1.85680       -0.69260
| 23> O          1.32790       -2.85030       -1.26890
| 24> C         -0.48320       -1.56900       -0.50450
| 25> C         -0.97210       -0.36870       -0.16210
| 26> C         -2.36670       -0.01160        0.00320
| 27> C         -2.68450        1.28840        0.40560
| 28> C         -4.00130        1.67060        0.57940
| 29> C         -5.02800        0.77430        0.35400
| 30> C         -4.72930       -0.52660       -0.04770
| 31> O         -5.76350       -1.38110       -0.26130
| 32> C         -3.40970       -0.91280       -0.22110
| 33> C          1.86060       -0.58470        1.28590
| 34> O          1.05850       -0.99880        2.08230
| 35> O          2.85470        0.25690        1.77900
| 36> H          5.53160        2.04190        1.09990
| 37> H          5.25080        1.05610        2.55030
| 38> H          4.23510        2.45280        2.24290
| 39> H          4.66780        0.95090       -0.91650
| 40> H          3.70140       -0.17760       -2.64210
| 41> H         -1.12870       -2.40770       -0.72070
| 42> H         -0.27690        0.44310        0.01320
| 43> H         -1.88930        1.99570        0.58790
| 44> H         -4.23310        2.67730        0.89340
| 45> H         -6.06130        1.05400        0.48210
| 46> H         -5.42750       -2.24770       -0.52110
| 47> H         -3.19390       -1.92450       -0.53350
| 48> *
| 49>
| 50>
| 51> $new_job
| 52> ! wb97x-d3 aug-cc-PVTZ RIJCOSX SP
| 53> %maxcore 4000
| 54> %basis
| 55>  AuxJ "aug-cc-PVTZ/JK"
| 56>  AuxC "aug-cc-PVTZ/C"
| 57>  newGTO H "cc-PVTZ" end
| 58>  newAuxJGTO H "cc-PVTZ/JK" end
| 59>  newAuxCGTO H "cc-PVTZ/C" end
| 60> end
| 61> %cpcm
| 62>  SMD true
| 63>  SMDsolvent "dichloromethane"
| 64> end
| 65> %pal nprocs 4 end
| 66> %tddft
| 67>  nroots 10
| 68>  maxdim 7
| 69> end
| 70> * xyzfile 0 1
| 71>
| 72>                          ****END OF INPUT****
 Total Charge           Charge          ....    0
 Multiplicity           Mult            ....    1
 Number of Electrons    NEL             ....  142
Dispersion correction           -0.012883077
FINAL SINGLE POINT ENERGY      -955.034277359872
Dispersion correction            ... done
Dispersion correction           -0.012784012
FINAL SINGLE POINT ENERGY      -955.036019160303
Dispersion correction            ... done
Dispersion correction           -0.012799041
FINAL SINGLE POINT ENERGY      -955.036294509146
Dispersion correction            ... done
FINAL SINGLE POINT ENERGY      -955.036805737442
FINAL SINGLE POINT ENERGY      -955.036884682181
FINAL SINGLE POINT ENERGY      -955.036891035641
FINAL SINGLE POINT ENERGY      -955.036904606699
FINAL SINGLE POINT ENERGY      -955.036929571178
FINAL SINGLE POINT ENERGY      -955.036947898787
FINAL SINGLE POINT ENERGY      -955.037006586828
FINAL SINGLE POINT ENERGY      -955.037003027788
FINAL SINGLE POINT ENERGY      -955.037046110064
FINAL SINGLE POINT ENERGY      -955.037060420994
FINAL SINGLE POINT ENERGY      -955.037082333028
FINAL SINGLE POINT ENERGY      -955.037092278277
Dispersion correction           -0.012938578
FINAL SINGLE POINT ENERGY      -955.037098845335
Dispersion correction            ... done
Dispersion correction           -0.012938143
FINAL SINGLE POINT ENERGY      -955.037107521081
Dispersion correction            ... done
                    ***********************HURRAY********************
Dispersion correction           -0.012938661
FINAL SINGLE POINT ENERGY      -955.037107270203

CARTESIAN COORDINATES (ANGSTROEM)
---------------------------------
  C      4.790228    1.692703    1.665481
  C      3.833070    0.788747    0.982779
  C      3.664177    0.671873   -0.345164
  C      2.693190   -0.252733   -0.829939
  O      2.477346   -0.384399   -2.140292
  C      1.958037   -1.005973    0.037046
  C      0.952947   -2.018346   -0.442426
  O      1.330388   -3.088728   -0.879064
  C     -0.475678   -1.687682   -0.383641
  C     -0.930225   -0.486160   -0.018315
  C     -2.330245   -0.056183    0.042070
  C     -2.599843    1.258050    0.417990
  C     -3.909513    1.713762    0.468566
  C     -4.959593    0.872289    0.151608
  C     -4.693787   -0.443469   -0.220069
  O     -5.756348   -1.231492   -0.525175
  C     -3.390615   -0.908376   -0.272892
  C      2.154935   -0.863114    1.444526
  O      1.578833   -1.464250    2.323082
  O      3.107862    0.056204    1.846473
  H      5.361634    2.264226    0.938670
  H      5.473644    1.109011    2.283875
  H      4.250555    2.378462    2.320224
  H      4.252878    1.272060   -1.024131
  H      3.052675    0.207821   -2.640669
  H     -1.136877   -2.492822   -0.681998
  H     -0.209692    0.277681    0.258844
  H     -1.780586    1.920851    0.666701
  H     -4.114866    2.736805    0.756376
  H     -5.985133    1.216194    0.186832
  H     -5.451996   -2.116288   -0.755741
  H     -3.207801   -1.936626   -0.561527

 Multiplicity           Mult            ....    1
 Number of Electrons    NEL             ....  142
 Basis Dimension        Dim             .... 1088

ORBITAL ENERGIES
----------------

  NO   OCC          E(Eh)            E(eV)
   0   2.0000     -19.312388      -525.5168
   1   2.0000     -19.295062      -525.0453
   2   2.0000     -19.268166      -524.3135
   3   2.0000     -19.229894      -523.2720
   4   2.0000     -19.213757      -522.8329
   5   2.0000     -10.418121      -283.4915
   6   2.0000     -10.387788      -282.6661
   7   2.0000     -10.381726      -282.5011
   8   2.0000     -10.379198      -282.4323
   9   2.0000     -10.349738      -281.6307
  10   2.0000     -10.308101      -280.4977
  11   2.0000     -10.302832      -280.3543
  12   2.0000     -10.292792      -280.0811
  13   2.0000     -10.292397      -280.0704
  14   2.0000     -10.287642      -279.9410
  15   2.0000     -10.285988      -279.8960
  16   2.0000     -10.285168      -279.8736
  17   2.0000     -10.283227      -279.8208
  18   2.0000     -10.282874      -279.8112
  19   2.0000     -10.281551      -279.7752
  20   2.0000      -1.251179       -34.0463
  21   2.0000      -1.217381       -33.1266
  22   2.0000      -1.185045       -32.2467
  23   2.0000      -1.167329       -31.7646
  24   2.0000      -1.149728       -31.2857
  25   2.0000      -0.989669       -26.9303
  26   2.0000      -0.959784       -26.1170
  27   2.0000      -0.934144       -25.4194
  28   2.0000      -0.921445       -25.0738
  29   2.0000      -0.870680       -23.6924
  30   2.0000      -0.863953       -23.5093
  31   2.0000      -0.840633       -22.8748
  32   2.0000      -0.780755       -21.2454
  33   2.0000      -0.776064       -21.1178
  34   2.0000      -0.760167       -20.6852
  35   2.0000      -0.734546       -19.9880
  36   2.0000      -0.698161       -18.9979
  37   2.0000      -0.682280       -18.5658
  38   2.0000      -0.669978       -18.2310
  39   2.0000      -0.652672       -17.7601
  40   2.0000      -0.637051       -17.3350
  41   2.0000      -0.617960       -16.8156
  42   2.0000      -0.604452       -16.4480
  43   2.0000      -0.595598       -16.2070
  44   2.0000      -0.577519       -15.7151
  45   2.0000      -0.569441       -15.4953
  46   2.0000      -0.558136       -15.1876
  47   2.0000      -0.549408       -14.9502
  48   2.0000      -0.538442       -14.6518
  49   2.0000      -0.534555       -14.5460
  50   2.0000      -0.532983       -14.5032
  51   2.0000      -0.528349       -14.3771
  52   2.0000      -0.523021       -14.2321
  53   2.0000      -0.520971       -14.1763
  54   2.0000      -0.509389       -13.8612
  55   2.0000      -0.505066       -13.7435
  56   2.0000      -0.497520       -13.5382
  57   2.0000      -0.482876       -13.1397
  58   2.0000      -0.477219       -12.9858
  59   2.0000      -0.465529       -12.6677
  60   2.0000      -0.462349       -12.5811
  61   2.0000      -0.455908       -12.4059
  62   2.0000      -0.452293       -12.3075
  63   2.0000      -0.441199       -12.0056
  64   2.0000      -0.399393       -10.8680
  65   2.0000      -0.387053       -10.5323
  66   2.0000      -0.384220       -10.4552
  67   2.0000      -0.360434        -9.8079
  68   2.0000      -0.332451        -9.0465
  69   2.0000      -0.319678        -8.6989
  70   2.0000      -0.312848        -8.5130
  71   0.0000      -0.009126        -0.2483
  72   0.0000       0.025172         0.6850
  73   0.0000       0.041975         1.1422
  74   0.0000       0.049580         1.3491
  75   0.0000       0.054876         1.4933

MULLIKEN ATOMIC CHARGES
-----------------------
   0 C :   -0.475108
   1 C :    0.866595
   2 C :   -0.671423
   3 C :    0.216826
   4 O :   -0.666857
   5 C :    1.155486
   6 C :    0.903595
   7 O :   -0.970580
   8 C :   -0.554630
   9 C :   -0.188106
  10 C :    1.923184
  11 C :   -0.759541
  12 C :   -0.374280
  13 C :   -0.451667
  14 C :    0.836564
  15 O :   -0.631542
  16 C :   -1.084670
  17 C :    0.485586
  18 O :   -0.980851
  19 O :   -0.407601
  20 H :    0.169247
  21 H :    0.183467
  22 H :    0.184300
  23 H :    0.132041
  24 H :    0.207332
  25 H :    0.049669
  26 H :    0.026224
  27 H :    0.146076
  28 H :    0.234392
  29 H :    0.239287
  30 H :    0.209843
  31 H :    0.047144
Sum of atomic charges:    0.0000000

LOEWDIN ATOMIC CHARGES
----------------------
   0 C :    0.075600
   1 C :   -0.691371
   2 C :    0.018063
   3 C :   -0.604693
   4 O :    0.631953
   5 C :   -0.260112
   6 C :   -0.710991
   7 O :    0.451779
   8 C :   -0.035846
   9 C :   -0.051416
  10 C :   -0.409069
  11 C :   -0.074227
  12 C :   -0.117487
  13 C :   -0.069117
  14 C :   -0.697263
  15 O :    0.547300
  16 C :   -0.000626
  17 C :   -0.869761
  18 O :    0.430494
  19 O :    0.580804
  20 H :    0.134456
  21 H :    0.134422
  22 H :    0.134197
  23 H :    0.198647
  24 H :    0.040746
  25 H :    0.203757
  26 H :    0.235184
  27 H :    0.190675
  28 H :    0.174373
  29 H :    0.184242
  30 H :    0.020005
  31 H :    0.205281

  Mayer bond orders larger than 0.100000
B(  0-C ,  1-C ) :   0.3944 B(  0-C ,  2-C ) :   0.1617 B(  0-C , 20-H ) :   1.0483
B(  0-C , 21-H ) :   1.0012 B(  0-C , 22-H ) :   0.9991 B(  1-C ,  2-C ) :   0.8592
B(  1-C ,  5-C ) :  -0.1424 B(  1-C , 17-C ) :   0.2173 B(  1-C , 19-O ) :   0.9699
B(  1-C , 20-H ) :  -0.1294 B(  1-C , 23-H ) :  -0.1788 B(  2-C ,  3-C ) :   1.1367
B(  2-C , 23-H ) :   1.1647 B(  3-C ,  4-O ) :   0.7104 B(  3-C ,  5-C ) :   1.2858
B(  3-C ,  6-C ) :   0.2016 B(  3-C ,  7-O ) :   0.1262 B(  4-O , 24-H ) :   1.0016
B(  5-C ,  6-C ) :   0.3454 B(  5-C ,  9-C ) :  -0.1611 B(  5-C , 17-C ) :   0.9151
B(  5-C , 19-O ) :   0.1043 B(  6-C ,  7-O ) :   0.7028 B(  6-C ,  8-C ) :   0.4797
B(  6-C ,  9-C ) :   0.1488 B(  6-C , 25-H ) :  -0.2081 B(  7-O ,  9-C ) :   0.1170
B(  8-C ,  9-C ) :   0.7637 B(  8-C , 10-C ) :   0.1183 B(  8-C , 25-H ) :   1.3611
B(  8-C , 26-H ) :  -0.1029 B(  9-C , 10-C ) :  -0.2383 B(  9-C , 11-C ) :   0.2899
B(  9-C , 12-C ) :  -0.1036 B(  9-C , 13-C ) :   0.1594 B(  9-C , 16-C ) :   0.1806
B(  9-C , 25-H ) :  -0.2045 B(  9-C , 26-H ) :   1.3889 B( 10-C , 13-C ) :  -0.2286
B( 10-C , 14-C ) :  -0.1664 B( 10-C , 16-C ) :   0.2528 B( 10-C , 26-H ) :  -0.1835
B( 10-C , 27-H ) :  -0.1885 B( 10-C , 31-H ) :  -0.1645 B( 11-C , 12-C ) :   1.1750
B( 11-C , 16-C ) :   0.1917 B( 11-C , 27-H ) :   1.1689 B( 12-C , 13-C ) :   1.2074
B( 12-C , 28-H ) :   0.9546 B( 13-C , 14-C ) :   1.0259 B( 13-C , 16-C ) :   0.1409
B( 13-C , 29-H ) :   0.9482 B( 14-C , 15-O ) :   0.5044 B( 14-C , 16-C ) :   1.1486
B( 15-O , 30-H ) :   0.9787 B( 16-C , 31-H ) :   1.2917 B( 17-C , 18-O ) :   0.9098
B( 17-C , 19-O ) :   0.6848

-----------------------------------------------------------------------------
         ABSORPTION SPECTRUM VIA TRANSITION ELECTRIC DIPOLE MOMENTS
-----------------------------------------------------------------------------
State   Energy    Wavelength  fosc         T2        TX        TY        TZ
        (cm-1)      (nm)                 (au**2)    (au)      (au)      (au)
-----------------------------------------------------------------------------
   1   32018.8    312.3   0.005398152   0.05550  -0.23029  -0.02200  -0.04458
   2   35704.8    280.1   0.603387184   5.56345  -2.11684   1.00945   0.25190
   3   36902.5    271.0   0.094239582   0.84072  -0.27072   0.84281   0.23897
   4   38765.4    258.0   0.431401627   3.66364  -1.86994   0.38508   0.13674
   5   40554.6    246.6   0.251869636   2.04461   0.49446   1.34150  -0.02212
   6   47416.2    210.9   0.000608887   0.00423   0.05098   0.03975  -0.00695
   7   49518.4    201.9   0.220554002   1.46630   1.08825   0.47812   0.23109
   8   50267.1    198.9   0.017453121   0.11430   0.06601  -0.33124   0.01497
   9   50342.9    198.6   0.001637507   0.01071  -0.02844  -0.08309   0.05473
  10   50697.0    197.3   0.160246133   1.04059   0.56721  -0.84208  -0.09881

Dispersion correction           -0.012938661
FINAL SINGLE POINT ENERGY      -954.891218728935

DIPOLE MOMENT
-------------
                                X             Y             Z
Electronic contribution:      1.03887      -7.23442      -1.34486
Nuclear contribution   :      0.29046      10.47022      -0.18949
                        -----------------------------------------
Total Dipole Moment    :      1.32933       3.23580      -1.53435
                        -----------------------------------------
Magnitude (a.u.)       :      3.81991
Magnitude (Debye)      :      9.70944

Rotational constants in cm-1:     0.022016     0.005299     0.004899
Rotational constants in MHz :   660.031842   158.860903   146.870948

                             ****ORCA TERMINATED NORMALLY****
TOTAL RUN TIME: 0 days 9 hours 40 minutes 13 seconds 305 msec
