                         Program Version 5.0.2 -  RELEASE  -
|  1> ! x3lyp aug-cc-PVTZ RIJCOSX Opt
|  2> %maxcore 4000
|  3> %basis
|  4>  AuxJ "aug-cc-PVTZ/JK"
|  5>  AuxC "aug-cc-PVTZ/C"
|  6>  newGTO H "cc-PVTZ" end
|  7>  newAuxJGTO H "cc-PVTZ/JK" end
|  8>  newAuxCGTO H "cc-PVTZ/C" end
|  9> end
| 10> %cpcm
| 11>  SMD true
| 12>  SMDsolvent "dichloromethane"
| 13> end
| 14> %pal nprocs 4 end
| 15> * xyz 0 1
| 16> C          4.77420        1.63780        1.76330
| 17> C          3.81630        0.77330        1.01460
| 18> C          3.88450        0.52050       -0.31330
| 19> C          2.90810       -0.33290       -0.90840
| 20> O          2.92630       -0.57610       -2.22540
| 21> C          1.91360       -0.86660       -0.12770
| 22> C          0.93720       -1.85680       -0.69260
| 23> O          1.32790       -2.85030       -1.26890
| 24> C         -0.48320       -1.56900       -0.50450
| 25> C         -0.97210       -0.36870       -0.16210
| 26> C         -2.36670       -0.01160        0.00320
| 27> C         -2.68450        1.28840        0.40560
| 28> C         -4.00130        1.67060        0.57940
| 29> C         -5.02800        0.77430        0.35400
| 30> C         -4.72930       -0.52660       -0.04770
| 31> O         -5.76350       -1.38110       -0.26130
| 32> C         -3.40970       -0.91280       -0.22110
| 33> C          1.86060       -0.58470        1.28590
| 34> O          1.05850       -0.99880        2.08230
| 35> O          2.85470        0.25690        1.77900
| 36> H          5.53160        2.04190        1.09990
| 37> H          5.25080        1.05610        2.55030
| 38> H          4.23510        2.45280        2.24290
| 39> H          4.66780        0.95090       -0.91650
| 40> H          3.70140       -0.17760       -2.64210
| 41> H         -1.12870       -2.40770       -0.72070
| 42> H         -0.27690        0.44310        0.01320
| 43> H         -1.88930        1.99570        0.58790
| 44> H         -4.23310        2.67730        0.89340
| 45> H         -6.06130        1.05400        0.48210
| 46> H         -5.42750       -2.24770       -0.52110
| 47> H         -3.19390       -1.92450       -0.53350
| 48> *
| 49>
| 50>
| 51> $new_job
| 52> ! x3lyp aug-cc-PVTZ RIJCOSX SP
| 53> %maxcore 4000
| 54> %basis
| 55>  AuxJ "aug-cc-PVTZ/JK"
| 56>  AuxC "aug-cc-PVTZ/C"
| 57>  newGTO H "cc-PVTZ" end
| 58>  newAuxJGTO H "cc-PVTZ/JK" end
| 59>  newAuxCGTO H "cc-PVTZ/C" end
| 60> end
| 61> %cpcm
| 62>  SMD true
| 63>  SMDsolvent "dichloromethane"
| 64> end
| 65> %pal nprocs 4 end
| 66> %tddft
| 67>  nroots 10
| 68>  maxdim 7
| 69> end
| 70> * xyzfile 0 1
| 71>
| 72>                          ****END OF INPUT****
 Total Charge           Charge          ....    0
 Multiplicity           Mult            ....    1
 Number of Electrons    NEL             ....  142
FINAL SINGLE POINT ENERGY      -954.557211570122
FINAL SINGLE POINT ENERGY      -954.559370260156
FINAL SINGLE POINT ENERGY      -954.559636012470
FINAL SINGLE POINT ENERGY      -954.560180615183
FINAL SINGLE POINT ENERGY      -954.560245136865
FINAL SINGLE POINT ENERGY      -954.560288659845
FINAL SINGLE POINT ENERGY      -954.560314196348
FINAL SINGLE POINT ENERGY      -954.560334870585
FINAL SINGLE POINT ENERGY      -954.560358565189
FINAL SINGLE POINT ENERGY      -954.560380792049
FINAL SINGLE POINT ENERGY      -954.560395021277
FINAL SINGLE POINT ENERGY      -954.560409711882
                    ***********************HURRAY********************
FINAL SINGLE POINT ENERGY      -954.560410271911

CARTESIAN COORDINATES (ANGSTROEM)
---------------------------------
  C      4.857854    1.695997    1.645987
  C      3.885552    0.796256    0.978094
  C      3.736042    0.633625   -0.352713
  C      2.747413   -0.273911   -0.827236
  O      2.563605   -0.448129   -2.144999
  C      1.955381   -0.972872    0.046702
  C      0.939102   -1.980342   -0.433293
  O      1.321897   -3.058131   -0.868960
  C     -0.484438   -1.655993   -0.383120
  C     -0.969289   -0.457794   -0.015405
  C     -2.368265   -0.049982    0.041085
  C     -2.661184    1.252998    0.462441
  C     -3.978461    1.689483    0.528052
  C     -5.019246    0.843765    0.177764
  C     -4.734391   -0.457031   -0.243116
  O     -5.792172   -1.248961   -0.578990
  C     -3.423643   -0.903997   -0.310681
  C      2.134899   -0.804295    1.452718
  O      1.539878   -1.371312    2.346224
  O      3.117166    0.111990    1.849832
  H      5.451016    2.232368    0.909389
  H      5.524114    1.118572    2.290391
  H      4.334091    2.416225    2.277867
  H      4.354797    1.189432   -1.042160
  H      3.173625    0.109054   -2.651659
  H     -1.134727   -2.465691   -0.690729
  H     -0.264470    0.313741    0.274447
  H     -1.852810    1.917145    0.737407
  H     -4.197430    2.697145    0.854792
  H     -6.048587    1.172418    0.224630
  H     -5.479328   -2.124957   -0.845143
  H     -3.228391   -1.916717   -0.639520

 Multiplicity           Mult            ....    1
 Number of Electrons    NEL             ....  142
 Basis Dimension        Dim             .... 1088

ORBITAL ENERGIES
----------------

  NO   OCC          E(Eh)            E(eV)
   0   2.0000     -19.232809      -523.3513
   1   2.0000     -19.218296      -522.9564
   2   2.0000     -19.194136      -522.2990
   3   2.0000     -19.151926      -521.1504
   4   2.0000     -19.139314      -520.8072
   5   2.0000     -10.330255      -281.1005
   6   2.0000     -10.299894      -280.2744
   7   2.0000     -10.293114      -280.0899
   8   2.0000     -10.292652      -280.0773
   9   2.0000     -10.266047      -279.3533
  10   2.0000     -10.222629      -278.1719
  11   2.0000     -10.218883      -278.0699
  12   2.0000     -10.211571      -277.8710
  13   2.0000     -10.209644      -277.8185
  14   2.0000     -10.203951      -277.6636
  15   2.0000     -10.202416      -277.6219
  16   2.0000     -10.202020      -277.6111
  17   2.0000     -10.201565      -277.5987
  18   2.0000     -10.199679      -277.5474
  19   2.0000     -10.199360      -277.5387
  20   2.0000      -1.132246       -30.8100
  21   2.0000      -1.102773       -30.0080
  22   2.0000      -1.073561       -29.2131
  23   2.0000      -1.051531       -28.6136
  24   2.0000      -1.037933       -28.2436
  25   2.0000      -0.874651       -23.8005
  26   2.0000      -0.844851       -22.9896
  27   2.0000      -0.819740       -22.3063
  28   2.0000      -0.807874       -21.9834
  29   2.0000      -0.759017       -20.6539
  30   2.0000      -0.753578       -20.5059
  31   2.0000      -0.730054       -19.8658
  32   2.0000      -0.672587       -18.3020
  33   2.0000      -0.669633       -18.2216
  34   2.0000      -0.653018       -17.7695
  35   2.0000      -0.629420       -17.1274
  36   2.0000      -0.594269       -16.1709
  37   2.0000      -0.578278       -15.7357
  38   2.0000      -0.566090       -15.4041
  39   2.0000      -0.551492       -15.0069
  40   2.0000      -0.536294       -14.5933
  41   2.0000      -0.516776       -14.0622
  42   2.0000      -0.499719       -13.5981
  43   2.0000      -0.492463       -13.4006
  44   2.0000      -0.479105       -13.0371
  45   2.0000      -0.468880       -12.7589
  46   2.0000      -0.459769       -12.5110
  47   2.0000      -0.452324       -12.3084
  48   2.0000      -0.440675       -11.9914
  49   2.0000      -0.438099       -11.9213
  50   2.0000      -0.433527       -11.7969
  51   2.0000      -0.426694       -11.6109
  52   2.0000      -0.425420       -11.5763
  53   2.0000      -0.422569       -11.4987
  54   2.0000      -0.411647       -11.2015
  55   2.0000      -0.407394       -11.0858
  56   2.0000      -0.402999       -10.9662
  57   2.0000      -0.390092       -10.6150
  58   2.0000      -0.383910       -10.4467
  59   2.0000      -0.372123       -10.1260
  60   2.0000      -0.364758        -9.9256
  61   2.0000      -0.362839        -9.8734
  62   2.0000      -0.359713        -9.7883
  63   2.0000      -0.353659        -9.6236
  64   2.0000      -0.308092        -8.3836
  65   2.0000      -0.296821        -8.0769
  66   2.0000      -0.291814        -7.9407
  67   2.0000      -0.268938        -7.3182
  68   2.0000      -0.250011        -6.8031
  69   2.0000      -0.237425        -6.4607
  70   2.0000      -0.233826        -6.3627
  71   0.0000      -0.079853        -2.1729
  72   0.0000      -0.048938        -1.3317
  73   0.0000      -0.011453        -0.3116
  74   0.0000      -0.007958        -0.2165
  75   0.0000       0.000011         0.0003

MULLIKEN ATOMIC CHARGES
-----------------------
   0 C :   -0.474412
   1 C :    0.766207
   2 C :   -0.528538
   3 C :    0.203295
   4 O :   -0.631503
   5 C :    1.021829
   6 C :    0.749355
   7 O :   -0.951175
   8 C :   -0.462901
   9 C :   -0.097304
  10 C :    1.812263
  11 C :   -0.621082
  12 C :   -0.356221
  13 C :   -0.409885
  14 C :    0.735136
  15 O :   -0.613853
  16 C :   -0.878519
  17 C :    0.557061
  18 O :   -0.919591
  19 O :   -0.466636
  20 H :    0.160202
  21 H :    0.169231
  22 H :    0.168598
  23 H :    0.087578
  24 H :    0.213021
  25 H :    0.044970
  26 H :   -0.019105
  27 H :    0.116288
  28 H :    0.196910
  29 H :    0.200213
  30 H :    0.211361
  31 H :    0.017205
Sum of atomic charges:   -0.0000000

LOEWDIN ATOMIC CHARGES
----------------------
   0 C :    0.067709
   1 C :   -0.688764
   2 C :    0.015175
   3 C :   -0.601899
   4 O :    0.622239
   5 C :   -0.251838
   6 C :   -0.714359
   7 O :    0.444023
   8 C :   -0.035668
   9 C :   -0.048788
  10 C :   -0.402449
  11 C :   -0.070189
  12 C :   -0.114692
  13 C :   -0.065945
  14 C :   -0.691573
  15 O :    0.541880
  16 C :    0.003707
  17 C :   -0.863489
  18 O :    0.425792
  19 O :    0.576979
  20 H :    0.134763
  21 H :    0.135029
  22 H :    0.134762
  23 H :    0.197698
  24 H :    0.044176
  25 H :    0.202533
  26 H :    0.230916
  27 H :    0.188964
  28 H :    0.173152
  29 H :    0.182937
  30 H :    0.024549
  31 H :    0.202671

  Mayer bond orders larger than 0.100000
B(  0-C ,  1-C ) :   0.4839 B(  0-C ,  2-C ) :   0.1484 B(  0-C , 20-H ) :   1.0351
B(  0-C , 21-H ) :   0.9965 B(  0-C , 22-H ) :   0.9961 B(  1-C ,  2-C ) :   1.0217
B(  1-C ,  5-C ) :  -0.1606 B(  1-C , 17-C ) :   0.1956 B(  1-C , 19-O ) :   1.0067
B(  1-C , 23-H ) :  -0.1461 B(  2-C ,  3-C ) :   1.1277 B(  2-C , 23-H ) :   1.1556
B(  3-C ,  4-O ) :   0.7495 B(  3-C ,  5-C ) :   1.2745 B(  3-C ,  6-C ) :   0.1341
B(  3-C ,  7-O ) :   0.1384 B(  4-O , 24-H ) :   0.9749 B(  5-C ,  6-C ) :   0.4651
B(  5-C ,  8-C ) :   0.1027 B(  5-C ,  9-C ) :  -0.1368 B(  5-C , 17-C ) :   0.9179
B(  5-C , 19-O ) :   0.1463 B(  6-C ,  7-O ) :   0.6368 B(  6-C ,  8-C ) :   0.5243
B(  6-C ,  9-C ) :   0.1036 B(  6-C , 25-H ) :  -0.1551 B(  7-O ,  9-C ) :   0.1465
B(  8-C ,  9-C ) :   0.8646 B(  8-C , 11-C ) :   0.1290 B(  8-C , 25-H ) :   1.2753
B(  9-C , 10-C ) :  -0.2336 B(  9-C , 11-C ) :   0.1297 B(  9-C , 13-C ) :   0.1372
B(  9-C , 16-C ) :   0.2225 B(  9-C , 25-H ) :  -0.1493 B(  9-C , 26-H ) :   1.3830
B( 10-C , 11-C ) :   0.3580 B( 10-C , 12-C ) :  -0.1004 B( 10-C , 13-C ) :  -0.1975
B( 10-C , 14-C ) :  -0.1331 B( 10-C , 16-C ) :   0.4050 B( 10-C , 26-H ) :  -0.2213
B( 10-C , 27-H ) :  -0.1238 B( 10-C , 31-H ) :  -0.1180 B( 11-C , 12-C ) :   1.2913
B( 11-C , 16-C ) :   0.1028 B( 11-C , 27-H ) :   1.1119 B( 12-C , 13-C ) :   1.2158
B( 12-C , 28-H ) :   0.9481 B( 13-C , 14-C ) :   1.1043 B( 13-C , 29-H ) :   0.9567
B( 14-C , 15-O ) :   0.5312 B( 14-C , 16-C ) :   1.1616 B( 15-O , 30-H ) :   0.9608
B( 16-C , 31-H ) :   1.2435 B( 17-C , 18-O ) :   0.9051 B( 17-C , 19-O ) :   0.6244

-----------------------------------------------------------------------------
         ABSORPTION SPECTRUM VIA TRANSITION ELECTRIC DIPOLE MOMENTS
-----------------------------------------------------------------------------
State   Energy    Wavelength  fosc         T2        TX        TY        TZ
        (cm-1)      (nm)                 (au**2)    (au)      (au)      (au)
-----------------------------------------------------------------------------
   1   26872.9    372.1   0.024605522   0.30143  -0.54368  -0.01500  -0.07498
   2   30205.4    331.1   0.242139804   2.63911   1.29860  -0.94231  -0.25454
   3   30684.5    325.9   0.011833113   0.12696   0.03973   0.32846   0.13225
   4   34109.3    293.2   0.779733531   7.52574   2.63461  -0.74182  -0.18518
   5   36364.2    275.0   0.071053866   0.64326  -0.70448   0.37880   0.05900
   6   37760.7    264.8   0.203398271   1.77330   0.47312   1.24442   0.02979
   7   39711.2    251.8   0.009771035   0.08100   0.26479   0.10358   0.01273
   8   39863.1    250.9   0.003472210   0.02868  -0.12530  -0.11230  -0.01913
   9   40616.2    246.2   0.041723432   0.33819  -0.45850  -0.35767   0.00639
  10   41445.4    241.3   0.001390485   0.01104  -0.07751   0.03611  -0.06110

FINAL SINGLE POINT ENERGY      -954.437968184778

DIPOLE MOMENT
-------------
                                X             Y             Z
Electronic contribution:      0.73708      -6.99621      -1.32093
Nuclear contribution   :      0.46656      10.20597      -0.25284
                        -----------------------------------------
Total Dipole Moment    :      1.20365       3.20976      -1.57377
                        -----------------------------------------
Magnitude (a.u.)       :      3.77201
Magnitude (Debye)      :      9.58770

Rotational constants in cm-1:     0.022223     0.005203     0.004804
Rotational constants in MHz :   666.222306   155.980238   144.017601

                             ****ORCA TERMINATED NORMALLY****
TOTAL RUN TIME: 0 days 4 hours 10 minutes 25 seconds 247 msec
