                         Program Version 5.0.2 -  RELEASE  -
|  1> ! b3lyp aug-cc-PVTZ RIJCOSX Opt
|  2> %maxcore 4000
|  3> %basis
|  4>  AuxJ "aug-cc-PVTZ/JK"
|  5>  AuxC "aug-cc-PVTZ/C"
|  6>  newGTO H "cc-PVTZ" end
|  7>  newAuxJGTO H "cc-PVTZ/JK" end
|  8>  newAuxCGTO H "cc-PVTZ/C" end
|  9> end
| 10> %cpcm
| 11>  SMD true
| 12>  SMDsolvent "benzene"
| 13> end
| 14> %pal nprocs 4 end
| 15> * xyz 0 1
| 16> C         -4.49800        0.16580        0.04130
| 17> C         -3.64810        1.25580        0.17290
| 18> C         -2.28180        1.07950        0.13650
| 19> C         -1.74760       -0.20460       -0.03390
| 20> N         -0.39610       -0.49050       -0.08470
| 21> N          0.39620        0.49240        0.06880
| 22> C          1.74770        0.20610        0.01640
| 23> C          2.61130        1.28860        0.21030
| 24> C          3.97790        1.09780        0.17750
| 25> C          4.49790       -0.16760       -0.04920
| 26> C          3.64700       -1.24720       -0.24490
| 27> C          2.28080       -1.06910       -0.21380
| 28> C         -2.61030       -1.29680       -0.16830
| 29> C         -3.97690       -1.10790       -0.12920
| 30> H         -5.56800        0.31100        0.07160
| 31> H         -4.06100        2.24580        0.30460
| 32> H         -1.60150        1.91160        0.23620
| 33> H          2.18550        2.26460        0.38580
| 34> H          4.64350        1.93500        0.32870
| 35> H          5.56780       -0.31440       -0.07400
| 36> H          4.05900       -2.23040       -0.42170
| 37> H          1.59970       -1.89300       -0.36320
| 38> H         -2.18350       -2.27940       -0.29950
| 39> H         -4.64170       -1.95310       -0.23180
| 40> *
| 41>
| 42>
| 43> $new_job
| 44> ! b3lyp aug-cc-PVTZ RIJCOSX SP
| 45> %maxcore 4000
| 46> %basis
| 47>  AuxJ "aug-cc-PVTZ/JK"
| 48>  AuxC "aug-cc-PVTZ/C"
| 49>  newGTO H "cc-PVTZ" end
| 50>  newAuxJGTO H "cc-PVTZ/JK" end
| 51>  newAuxCGTO H "cc-PVTZ/C" end
| 52> end
| 53> %cpcm
| 54>  SMD true
| 55>  SMDsolvent "benzene"
| 56> end
| 57> %pal nprocs 4 end
| 58> %tddft
| 59>  nroots 10
| 60>  maxdim 7
| 61> end
| 62> * xyzfile 0 1
| 63>
| 64>                          ****END OF INPUT****
 Total Charge           Charge          ....    0
 Multiplicity           Mult            ....    1
 Number of Electrons    NEL             ....   96
FINAL SINGLE POINT ENERGY      -572.623060826823
FINAL SINGLE POINT ENERGY      -572.624654298756
FINAL SINGLE POINT ENERGY      -572.625025486669
FINAL SINGLE POINT ENERGY      -572.625068946954
FINAL SINGLE POINT ENERGY      -572.625076525193
FINAL SINGLE POINT ENERGY      -572.625077230243
                    ***********************HURRAY********************
FINAL SINGLE POINT ENERGY      -572.625077511661

CARTESIAN COORDINATES (ANGSTROEM)
---------------------------------
  C     -4.529289    0.166563    0.036580
  C     -3.677352    1.262892    0.180990
  C     -2.303465    1.093318    0.151871
  C     -1.769276   -0.189806   -0.023652
  N     -0.385214   -0.488020   -0.071783
  N      0.385032    0.485262    0.063312
  C      1.769120    0.188322    0.011338
  C      2.621567    1.277846    0.199218
  C      3.998942    1.100624    0.170415
  C      4.529366   -0.165414   -0.049607
  C      3.678320   -1.255308   -0.240431
  C      2.304231   -1.087125   -0.211060
  C     -2.622550   -1.285231   -0.168266
  C     -3.999787   -1.106919   -0.138130
  H     -5.601704    0.309557    0.060610
  H     -4.092837    2.253092    0.316679
  H     -1.637303    1.936348    0.261896
  H      2.185963    2.253752    0.367908
  H      4.655580    1.947648    0.318358
  H      5.601897   -0.307451   -0.074266
  H      4.094721   -2.239310   -0.413325
  H      1.638816   -1.925107   -0.357930
  H     -2.187839   -2.266714   -0.303608
  H     -4.657140   -1.958819   -0.250718

 Multiplicity           Mult            ....    1
 Number of Electrons    NEL             ....   96
 Basis Dimension        Dim             ....  784

ORBITAL ENERGIES
----------------

  NO   OCC          E(Eh)            E(eV)
   0   2.0000     -14.364430      -390.8760
   1   2.0000     -14.363897      -390.8615
   2   2.0000     -10.208533      -277.7883
   3   2.0000     -10.208519      -277.7879
   4   2.0000     -10.182936      -277.0918
   5   2.0000     -10.182935      -277.0918
   6   2.0000     -10.181756      -277.0597
   7   2.0000     -10.181749      -277.0595
   8   2.0000     -10.181237      -277.0455
   9   2.0000     -10.181230      -277.0453
  10   2.0000     -10.180445      -277.0240
  11   2.0000     -10.180443      -277.0239
  12   2.0000     -10.180126      -277.0153
  13   2.0000     -10.180095      -277.0145
  14   2.0000      -1.038729       -28.2653
  15   2.0000      -0.876552       -23.8522
  16   2.0000      -0.858973       -23.3738
  17   2.0000      -0.800278       -21.7767
  18   2.0000      -0.755416       -20.5559
  19   2.0000      -0.754575       -20.5330
  20   2.0000      -0.745056       -20.2740
  21   2.0000      -0.681746       -18.5512
  22   2.0000      -0.622185       -16.9305
  23   2.0000      -0.615930       -16.7603
  24   2.0000      -0.601024       -16.3547
  25   2.0000      -0.568407       -15.4671
  26   2.0000      -0.534546       -14.5457
  27   2.0000      -0.507050       -13.7975
  28   2.0000      -0.485453       -13.2098
  29   2.0000      -0.476042       -12.9538
  30   2.0000      -0.454939       -12.3795
  31   2.0000      -0.443557       -12.0698
  32   2.0000      -0.437947       -11.9171
  33   2.0000      -0.432792       -11.7769
  34   2.0000      -0.429361       -11.6835
  35   2.0000      -0.426600       -11.6084
  36   2.0000      -0.400620       -10.9014
  37   2.0000      -0.383797       -10.4436
  38   2.0000      -0.365594        -9.9483
  39   2.0000      -0.363795        -9.8994
  40   2.0000      -0.357754        -9.7350
  41   2.0000      -0.347853        -9.4656
  42   2.0000      -0.346898        -9.4396
  43   2.0000      -0.281879        -7.6703
  44   2.0000      -0.263845        -7.1796
  45   2.0000      -0.263535        -7.1711
  46   2.0000      -0.236416        -6.4332
  47   2.0000      -0.235015        -6.3951
  48   0.0000      -0.090750        -2.4694
  49   0.0000      -0.019839        -0.5399
  50   0.0000      -0.016868        -0.4590
  51   0.0000      -0.005795        -0.1577
  52   0.0000       0.002153         0.0586

MULLIKEN ATOMIC CHARGES
-----------------------
   0 C :   -0.244549
   1 C :   -0.462426
   2 C :   -0.108746
   3 C :    0.844180
   4 N :   -0.295229
   5 N :   -0.289718
   6 C :    0.842233
   7 C :   -0.374850
   8 C :   -0.302917
   9 C :   -0.243242
  10 C :   -0.459812
  11 C :   -0.113693
  12 C :   -0.374735
  13 C :   -0.304311
  14 H :    0.199385
  15 H :    0.195043
  16 H :    0.167755
  17 H :    0.183737
  18 H :    0.197276
  19 H :    0.199421
  20 H :    0.194613
  21 H :    0.167875
  22 H :    0.184483
  23 H :    0.198227
Sum of atomic charges:   -0.0000000

LOEWDIN ATOMIC CHARGES
----------------------
   0 C :   -0.139521
   1 C :   -0.127090
   2 C :   -0.061828
   3 C :   -0.506734
   4 N :    0.152813
   5 N :    0.152567
   6 C :   -0.506732
   7 C :   -0.070571
   8 C :   -0.127157
   9 C :   -0.139549
  10 C :   -0.127105
  11 C :   -0.061642
  12 C :   -0.070527
  13 C :   -0.127196
  14 H :    0.167275
  15 H :    0.168417
  16 H :    0.189492
  17 H :    0.187041
  18 H :    0.167929
  19 H :    0.167283
  20 H :    0.168413
  21 H :    0.189460
  22 H :    0.187029
  23 H :    0.167933

  Mayer bond orders larger than 0.100000
B(  0-C ,  1-C ) :   1.2490 B(  0-C , 13-C ) :   1.2024 B(  0-C , 14-H ) :   0.9477
B(  1-C ,  2-C ) :   1.0718 B(  1-C , 15-H ) :   0.9633 B(  2-C ,  3-C ) :   1.1176
B(  2-C ,  4-N ) :  -0.2441 B(  2-C , 16-H ) :   1.0189 B(  3-C ,  4-N ) :   0.1151
B(  3-C ,  5-N ) :   0.4829 B(  3-C , 12-C ) :   0.9738 B(  4-N ,  6-C ) :   0.4880
B(  4-N ,  7-C ) :   0.1143 B(  5-N ,  6-C ) :   0.1200 B(  5-N , 11-C ) :  -0.2442
B(  5-N , 12-C ) :   0.1173 B(  6-C ,  7-C ) :   0.9763 B(  6-C , 11-C ) :   1.1142
B(  7-C ,  8-C ) :   1.1519 B(  7-C , 17-H ) :   0.9777 B(  8-C ,  9-C ) :   1.2010
B(  8-C , 18-H ) :   0.9721 B(  9-C , 10-C ) :   1.2454 B(  9-C , 19-H ) :   0.9480
B( 10-C , 11-C ) :   1.0747 B( 10-C , 20-H ) :   0.9649 B( 11-C , 21-H ) :   1.0184
B( 12-C , 13-C ) :   1.1512 B( 12-C , 22-H ) :   0.9758 B( 13-C , 23-H ) :   0.9695

-----------------------------------------------------------------------------
         ABSORPTION SPECTRUM VIA TRANSITION ELECTRIC DIPOLE MOMENTS
-----------------------------------------------------------------------------
State   Energy    Wavelength  fosc         T2        TX        TY        TZ
        (cm-1)      (nm)                 (au**2)    (au)      (au)      (au)
-----------------------------------------------------------------------------
   1   20858.9    479.4   0.000160517   0.00253  -0.05031   0.00133   0.00042
   2   29466.3    339.4   1.201394606  13.42258  -3.66090   0.13734   0.03876
   3   32778.6    305.1   0.070085887   0.70391  -0.56206  -0.61593  -0.09286
   4   32830.8    304.6   0.000022909   0.00023  -0.00426  -0.00466  -0.01378
   5   38652.1    258.7   0.000005670   0.00005   0.00042  -0.00159   0.00675
   6   40086.7    249.5   0.000140605   0.00115  -0.01065  -0.03186  -0.00510
   7   40784.1    245.2   0.000049195   0.00040   0.01660  -0.00885   0.00657
   8   42536.1    235.1   0.001702690   0.01318   0.00140   0.02475  -0.11209
   9   43331.8    230.8   0.280620193   2.13200  -1.13368  -0.90988  -0.13741
  10   43741.3    228.6   0.000060679   0.00046   0.00090   0.00366  -0.02103

FINAL SINGLE POINT ENERGY      -572.530037399264

DIPOLE MOMENT
-------------
                                X             Y             Z
Electronic contribution:      0.00014      -0.00366       0.00549
Nuclear contribution   :      0.00037       0.00478      -0.00988
                        -----------------------------------------
Total Dipole Moment    :      0.00051       0.00112      -0.00439
                        -----------------------------------------
Magnitude (a.u.)       :      0.00456
Magnitude (Debye)      :      0.01159

Rotational constants in cm-1:     0.091800     0.009745     0.008810
Rotational constants in MHz :  2752.091709   292.137284   264.120906

                             ****ORCA TERMINATED NORMALLY****
TOTAL RUN TIME: 0 days 1 hours 1 minutes 53 seconds 291 msec
