                         Program Version 5.0.2 -  RELEASE  -
|  1> ! m062x defgrid3 aug-cc-PVTZ RIJCOSX Opt
|  2> %maxcore 4000
|  3> %basis
|  4>  AuxJ "aug-cc-PVTZ/JK"
|  5>  AuxC "aug-cc-PVTZ/C"
|  6>  newGTO H "cc-PVTZ" end
|  7>  newAuxJGTO H "cc-PVTZ/JK" end
|  8>  newAuxCGTO H "cc-PVTZ/C" end
|  9> end
| 10> %cpcm
| 11>  SMD true
| 12>  SMDsolvent "benzene"
| 13> end
| 14> %pal nprocs 4 end
| 15> * xyz 0 1
| 16> C         -4.49800        0.16580        0.04130
| 17> C         -3.64810        1.25580        0.17290
| 18> C         -2.28180        1.07950        0.13650
| 19> C         -1.74760       -0.20460       -0.03390
| 20> N         -0.39610       -0.49050       -0.08470
| 21> N          0.39620        0.49240        0.06880
| 22> C          1.74770        0.20610        0.01640
| 23> C          2.61130        1.28860        0.21030
| 24> C          3.97790        1.09780        0.17750
| 25> C          4.49790       -0.16760       -0.04920
| 26> C          3.64700       -1.24720       -0.24490
| 27> C          2.28080       -1.06910       -0.21380
| 28> C         -2.61030       -1.29680       -0.16830
| 29> C         -3.97690       -1.10790       -0.12920
| 30> H         -5.56800        0.31100        0.07160
| 31> H         -4.06100        2.24580        0.30460
| 32> H         -1.60150        1.91160        0.23620
| 33> H          2.18550        2.26460        0.38580
| 34> H          4.64350        1.93500        0.32870
| 35> H          5.56780       -0.31440       -0.07400
| 36> H          4.05900       -2.23040       -0.42170
| 37> H          1.59970       -1.89300       -0.36320
| 38> H         -2.18350       -2.27940       -0.29950
| 39> H         -4.64170       -1.95310       -0.23180
| 40> *
| 41>
| 42>
| 43> $new_job
| 44> ! m062x defgrid3 aug-cc-PVTZ RIJCOSX SP
| 45> %maxcore 4000
| 46> %basis
| 47>  AuxJ "aug-cc-PVTZ/JK"
| 48>  AuxC "aug-cc-PVTZ/C"
| 49>  newGTO H "cc-PVTZ" end
| 50>  newAuxJGTO H "cc-PVTZ/JK" end
| 51>  newAuxCGTO H "cc-PVTZ/C" end
| 52> end
| 53> %cpcm
| 54>  SMD true
| 55>  SMDsolvent "benzene"
| 56> end
| 57> %pal nprocs 4 end
| 58> %tddft
| 59>  nroots 10
| 60>  maxdim 7
| 61> end
| 62> * xyzfile 0 1
| 63>
| 64>                          ****END OF INPUT****
 Total Charge           Charge          ....    0
 Multiplicity           Mult            ....    1
 Number of Electrons    NEL             ....   96
FINAL SINGLE POINT ENERGY      -572.733006373813
FINAL SINGLE POINT ENERGY      -572.735579886034
FINAL SINGLE POINT ENERGY      -572.736235647965
FINAL SINGLE POINT ENERGY      -572.736292084359
FINAL SINGLE POINT ENERGY      -572.736301219700
FINAL SINGLE POINT ENERGY      -572.736301987594
                    ***********************HURRAY********************
FINAL SINGLE POINT ENERGY      -572.736302543588

CARTESIAN COORDINATES (ANGSTROEM)
---------------------------------
  C     -4.514666    0.165076    0.040728
  C     -3.664396    1.260485    0.174136
  C     -2.292309    1.090640    0.140313
  C     -1.767190   -0.190496   -0.029401
  N     -0.375097   -0.485649   -0.080758
  N      0.375024    0.485838    0.064595
  C      1.767092    0.191059    0.011428
  C      2.612879    1.276341    0.206718
  C      3.988520    1.097582    0.178318
  C      4.514701   -0.166017   -0.047725
  C      3.664273   -1.251421   -0.245874
  C      2.292122   -1.080987   -0.217237
  C     -2.612810   -1.284988   -0.164601
  C     -3.988403   -1.107214   -0.128727
  H     -5.586558    0.308264    0.068484
  H     -4.078913    2.251107    0.305250
  H     -1.622646    1.932320    0.241392
  H      2.174651    2.250337    0.380515
  H      4.646460    1.942004    0.331856
  H      5.586617   -0.309819   -0.071205
  H      4.078715   -2.234818   -0.423414
  H      1.622540   -1.915063   -0.368965
  H     -2.174435   -2.265452   -0.296559
  H     -4.646369   -1.959132   -0.232867

 Multiplicity           Mult            ....    1
 Number of Electrons    NEL             ....   96
 Basis Dimension        Dim             ....  784

ORBITAL ENERGIES
----------------

  NO   OCC          E(Eh)            E(eV)
   0   2.0000     -14.805499      -402.8781
   1   2.0000     -14.804588      -402.8533
   2   2.0000     -10.576077      -287.7897
   3   2.0000     -10.576067      -287.7894
   4   2.0000     -10.549876      -287.0767
   5   2.0000     -10.549873      -287.0766
   6   2.0000     -10.549289      -287.0607
   7   2.0000     -10.549280      -287.0605
   8   2.0000     -10.548538      -287.0403
   9   2.0000     -10.548530      -287.0401
  10   2.0000     -10.547678      -287.0169
  11   2.0000     -10.547674      -287.0168
  12   2.0000     -10.547608      -287.0150
  13   2.0000     -10.547606      -287.0150
  14   2.0000      -1.164922       -31.6991
  15   2.0000      -0.985643       -26.8207
  16   2.0000      -0.966971       -26.3126
  17   2.0000      -0.901227       -24.5236
  18   2.0000      -0.854728       -23.2583
  19   2.0000      -0.853973       -23.2378
  20   2.0000      -0.843321       -22.9479
  21   2.0000      -0.772391       -21.0178
  22   2.0000      -0.707574       -19.2541
  23   2.0000      -0.702962       -19.1286
  24   2.0000      -0.684701       -18.6317
  25   2.0000      -0.649483       -17.6733
  26   2.0000      -0.612226       -16.6595
  27   2.0000      -0.586260       -15.9530
  28   2.0000      -0.558060       -15.1856
  29   2.0000      -0.551790       -15.0150
  30   2.0000      -0.525073       -14.2880
  31   2.0000      -0.518586       -14.1114
  32   2.0000      -0.513602       -13.9758
  33   2.0000      -0.499848       -13.6015
  34   2.0000      -0.498587       -13.5673
  35   2.0000      -0.494195       -13.4477
  36   2.0000      -0.475732       -12.9453
  37   2.0000      -0.456941       -12.4340
  38   2.0000      -0.428595       -11.6627
  39   2.0000      -0.425715       -11.5843
  40   2.0000      -0.424687       -11.5563
  41   2.0000      -0.407021       -11.0756
  42   2.0000      -0.406501       -11.0614
  43   2.0000      -0.336094        -9.1456
  44   2.0000      -0.318162        -8.6576
  45   2.0000      -0.317760        -8.6467
  46   2.0000      -0.304200        -8.2777
  47   2.0000      -0.287623        -7.8266
  48   0.0000      -0.057566        -1.5664
  49   0.0000       0.006834         0.1860
  50   0.0000       0.008922         0.2428
  51   0.0000       0.010561         0.2874
  52   0.0000       0.014429         0.3926

MULLIKEN ATOMIC CHARGES
-----------------------
   0 C :   -0.177786
   1 C :   -0.608402
   2 C :   -0.024590
   3 C :    1.018561
   4 N :   -0.215526
   5 N :   -0.219708
   6 C :    1.015388
   7 C :   -0.219054
   8 C :   -0.380547
   9 C :   -0.178958
  10 C :   -0.599719
  11 C :   -0.033636
  12 C :   -0.210221
  13 C :   -0.387205
  14 H :    0.119714
  15 H :    0.125337
  16 H :    0.107861
  17 H :    0.138498
  18 H :    0.119805
  19 H :    0.120707
  20 H :    0.122834
  21 H :    0.108185
  22 H :    0.138918
  23 H :    0.119545
Sum of atomic charges:   -0.0000000

LOEWDIN ATOMIC CHARGES
----------------------
   0 C :   -0.141499
   1 C :   -0.127192
   2 C :   -0.064190
   3 C :   -0.512929
   4 N :    0.154153
   5 N :    0.154059
   6 C :   -0.512871
   7 C :   -0.070709
   8 C :   -0.127479
   9 C :   -0.141463
  10 C :   -0.127260
  11 C :   -0.064102
  12 C :   -0.070650
  13 C :   -0.127529
  14 H :    0.168579
  15 H :    0.169569
  16 H :    0.192922
  17 H :    0.189755
  18 H :    0.169018
  19 H :    0.168571
  20 H :    0.169572
  21 H :    0.192883
  22 H :    0.189754
  23 H :    0.169039

  Mayer bond orders larger than 0.100000
B(  0-C ,  1-C ) :   1.1784 B(  0-C , 13-C ) :   1.1233 B(  0-C , 14-H ) :   1.0817
B(  1-C ,  2-C ) :   0.8594 B(  1-C , 15-H ) :   1.1025 B(  2-C ,  3-C ) :   1.0100
B(  2-C ,  4-N ) :  -0.3357 B(  2-C ,  5-N ) :   0.1217 B(  2-C , 15-H ) :  -0.1052
B(  2-C , 16-H ) :   1.1871 B(  3-C ,  4-N ) :   0.5477 B(  3-C ,  5-N ) :   0.1822
B(  3-C ,  6-C ) :   0.1241 B(  3-C , 12-C ) :   0.8488 B(  3-C , 16-H ) :  -0.1579
B(  4-N ,  5-N ) :   0.2418 B(  4-N ,  6-C ) :   0.1799 B(  4-N ,  7-C ) :   0.1070
B(  4-N , 11-C ) :   0.1246 B(  4-N , 12-C ) :  -0.2861 B(  5-N ,  6-C ) :   0.5482
B(  5-N ,  7-C ) :  -0.2856 B(  5-N , 11-C ) :  -0.3336 B(  5-N , 12-C ) :   0.1085
B(  6-C ,  7-C ) :   0.8517 B(  6-C , 11-C ) :   1.0108 B(  6-C , 21-H ) :  -0.1567
B(  7-C ,  8-C ) :   1.0453 B(  7-C , 17-H ) :   1.1141 B(  7-C , 18-H ) :  -0.1173
B(  8-C ,  9-C ) :   1.1205 B(  8-C , 18-H ) :   1.1203 B(  9-C , 10-C ) :   1.1741
B(  9-C , 19-H ) :   1.0814 B( 10-C , 11-C ) :   0.8689 B( 10-C , 20-H ) :   1.1055
B( 11-C , 20-H ) :  -0.1051 B( 11-C , 21-H ) :   1.1865 B( 12-C , 13-C ) :   1.0396
B( 12-C , 22-H ) :   1.1132 B( 12-C , 23-H ) :  -0.1200 B( 13-C , 23-H ) :   1.1227

-----------------------------------------------------------------------------
         ABSORPTION SPECTRUM VIA TRANSITION ELECTRIC DIPOLE MOMENTS
-----------------------------------------------------------------------------
State   Energy    Wavelength  fosc         T2        TX        TY        TZ
        (cm-1)      (nm)                 (au**2)    (au)      (au)      (au)
-----------------------------------------------------------------------------
   1   21512.0    464.9   0.000094426   0.00145   0.03800  -0.00090  -0.00036
   2   33502.0    298.5   1.190367872  11.69732   3.41763  -0.12628  -0.03423
   3   38937.9    256.8   0.052771712   0.44617  -0.20370  -0.62873  -0.09686
   4   39042.2    256.1   0.000036201   0.00031  -0.00110  -0.00511   0.01667
   5   44686.1    223.8   0.000028622   0.00021  -0.00006  -0.00265   0.01428
   6   48787.7    205.0   0.595261581   4.01674  -1.42027  -1.39834  -0.21023
   7   49288.3    202.9   0.016481022   0.11008   0.25920   0.20489   0.03025
   8   49358.5    202.6   0.000199548   0.00133   0.00319  -0.00246   0.03626
   9   49938.8    200.2   0.000171326   0.00113   0.00300  -0.00210   0.03341
  10   50712.7    197.2   0.000459667   0.00298   0.00093   0.00909  -0.05386

FINAL SINGLE POINT ENERGY      -572.638286715767

DIPOLE MOMENT
-------------
                                X             Y             Z
Electronic contribution:     -0.00004       0.00043      -0.00643
Nuclear contribution   :      0.00022      -0.00040       0.00424
                        -----------------------------------------
Total Dipole Moment    :      0.00018       0.00004      -0.00219
                        -----------------------------------------
Magnitude (a.u.)       :      0.00220
Magnitude (Debye)      :      0.00558

Rotational constants in cm-1:     0.092121     0.009809     0.008866
Rotational constants in MHz :  2761.727829   294.078756   265.809506

                             ****ORCA TERMINATED NORMALLY****
TOTAL RUN TIME: 0 days 2 hours 15 minutes 30 seconds 766 msec
