                         Program Version 5.0.2 -  RELEASE  -
|  1> ! pbe0 d3bj aug-cc-PVTZ RIJCOSX Opt
|  2> %maxcore 4000
|  3> %basis
|  4>  AuxJ "aug-cc-PVTZ/JK"
|  5>  AuxC "aug-cc-PVTZ/C"
|  6>  newGTO H "cc-PVTZ" end
|  7>  newAuxJGTO H "cc-PVTZ/JK" end
|  8>  newAuxCGTO H "cc-PVTZ/C" end
|  9> end
| 10> %cpcm
| 11>  SMD true
| 12>  SMDsolvent "benzene"
| 13> end
| 14> %pal nprocs 4 end
| 15> * xyz 0 1
| 16> C         -4.49800        0.16580        0.04130
| 17> C         -3.64810        1.25580        0.17290
| 18> C         -2.28180        1.07950        0.13650
| 19> C         -1.74760       -0.20460       -0.03390
| 20> N         -0.39610       -0.49050       -0.08470
| 21> N          0.39620        0.49240        0.06880
| 22> C          1.74770        0.20610        0.01640
| 23> C          2.61130        1.28860        0.21030
| 24> C          3.97790        1.09780        0.17750
| 25> C          4.49790       -0.16760       -0.04920
| 26> C          3.64700       -1.24720       -0.24490
| 27> C          2.28080       -1.06910       -0.21380
| 28> C         -2.61030       -1.29680       -0.16830
| 29> C         -3.97690       -1.10790       -0.12920
| 30> H         -5.56800        0.31100        0.07160
| 31> H         -4.06100        2.24580        0.30460
| 32> H         -1.60150        1.91160        0.23620
| 33> H          2.18550        2.26460        0.38580
| 34> H          4.64350        1.93500        0.32870
| 35> H          5.56780       -0.31440       -0.07400
| 36> H          4.05900       -2.23040       -0.42170
| 37> H          1.59970       -1.89300       -0.36320
| 38> H         -2.18350       -2.27940       -0.29950
| 39> H         -4.64170       -1.95310       -0.23180
| 40> *
| 41>
| 42>
| 43> $new_job
| 44> ! b2plyp aug-cc-PVTZ RIJCOSX SP
| 45> %maxcore 4000
| 46> %basis
| 47>  AuxJ "aug-cc-PVTZ/JK"
| 48>  AuxC "aug-cc-PVTZ/C"
| 49>  newGTO H "cc-PVTZ" end
| 50>  newAuxJGTO H "cc-PVTZ/JK" end
| 51>  newAuxCGTO H "cc-PVTZ/C" end
| 52> end
| 53> %cpcm
| 54>  SMD true
| 55>  SMDsolvent "benzene"
| 56> end
| 57> %pal nprocs 4 end
| 58> %tddft
| 59>  nroots 10
| 60>  maxdim 7
| 61> end
| 62> * xyzfile 0 1
| 63>
| 64>                          ****END OF INPUT****
 Total Charge           Charge          ....    0
 Multiplicity           Mult            ....    1
 Number of Electrons    NEL             ....   96
Dispersion correction           -0.024360246
FINAL SINGLE POINT ENERGY      -572.311326909031
Dispersion correction            ... done
Dispersion correction           -0.024355908
FINAL SINGLE POINT ENERGY      -572.312813824142
Dispersion correction            ... done
Dispersion correction           -0.024321674
FINAL SINGLE POINT ENERGY      -572.313155480107
Dispersion correction            ... done
FINAL SINGLE POINT ENERGY      -572.313189092896
Dispersion correction            ... done
Dispersion correction           -0.024325546
FINAL SINGLE POINT ENERGY      -572.313193913470
Dispersion correction            ... done
                    ***********************HURRAY********************
Dispersion correction           -0.024325761
FINAL SINGLE POINT ENERGY      -572.313194698674

CARTESIAN COORDINATES (ANGSTROEM)
---------------------------------
  C     -4.505376    0.166145    0.036445
  C     -3.654224    1.259490    0.174617
  C     -2.284249    1.087654    0.145235
  C     -1.756494   -0.193906   -0.024131
  N     -0.378727   -0.489346   -0.071375
  N      0.378607    0.486377    0.064767
  C      1.756370    0.192395    0.012075
  C      2.605811    1.277359    0.204624
  C      3.979527    1.098248    0.175723
  C      4.505427   -0.165014   -0.049492
  C      3.655138   -1.250176   -0.245344
  C      2.284948   -1.079757   -0.215567
  C     -2.606732   -1.286394   -0.162931
  C     -3.980304   -1.106246   -0.132403
  H     -5.578728    0.311185    0.060633
  H     -4.068679    2.251960    0.305982
  H     -1.611272    1.928054    0.250248
  H      2.167828    2.252955    0.377738
  H      4.638989    1.943757    0.327990
  H      5.578893   -0.309117   -0.074433
  H      4.070509   -2.235021   -0.423044
  H      1.612618   -1.913723   -0.366113
  H     -2.169628   -2.268872   -0.294340
  H     -4.640453   -1.958006   -0.240505

 Multiplicity           Mult            ....    1
 Number of Electrons    NEL             ....   96
 Basis Dimension        Dim             ....  784

ORBITAL ENERGIES
----------------

  NO   OCC          E(Eh)            E(eV)
   0   2.0000     -14.894221      -405.2924
   1   2.0000     -14.893317      -405.2678
   2   2.0000     -10.651317      -289.8371
   3   2.0000     -10.651309      -289.8369
   4   2.0000     -10.625993      -289.1480
   5   2.0000     -10.625991      -289.1479
   6   2.0000     -10.625023      -289.1216
   7   2.0000     -10.625010      -289.1212
   8   2.0000     -10.624168      -289.0983
   9   2.0000     -10.624157      -289.0980
  10   2.0000     -10.623182      -289.0715
  11   2.0000     -10.623176      -289.0713
  12   2.0000     -10.623127      -289.0700
  13   2.0000     -10.623109      -289.0695
  14   2.0000      -1.185403       -32.2564
  15   2.0000      -1.004936       -27.3457
  16   2.0000      -0.984770       -26.7970
  17   2.0000      -0.919288       -25.0151
  18   2.0000      -0.869862       -23.6702
  19   2.0000      -0.869134       -23.6503
  20   2.0000      -0.857706       -23.3394
  21   2.0000      -0.785866       -21.3845
  22   2.0000      -0.717485       -19.5238
  23   2.0000      -0.711835       -19.3700
  24   2.0000      -0.693846       -18.8805
  25   2.0000      -0.656290       -17.8586
  26   2.0000      -0.615367       -16.7450
  27   2.0000      -0.589158       -16.0318
  28   2.0000      -0.563538       -15.3347
  29   2.0000      -0.556262       -15.1367
  30   2.0000      -0.529828       -14.4174
  31   2.0000      -0.516461       -14.0536
  32   2.0000      -0.505445       -13.7539
  33   2.0000      -0.503702       -13.7064
  34   2.0000      -0.501529       -13.6473
  35   2.0000      -0.497330       -13.5330
  36   2.0000      -0.477779       -13.0010
  37   2.0000      -0.443208       -12.0603
  38   2.0000      -0.430644       -11.7184
  39   2.0000      -0.429211       -11.6794
  40   2.0000      -0.412780       -11.2323
  41   2.0000      -0.411066       -11.1857
  42   2.0000      -0.410767       -11.1775
  43   2.0000      -0.319135        -8.6841
  44   2.0000      -0.303452        -8.2574
  45   2.0000      -0.300376        -8.1737
  46   2.0000      -0.299911        -8.1610
  47   2.0000      -0.266825        -7.2607
  48   0.0000      -0.038704        -1.0532
  49   0.0000       0.023369         0.6359
  50   0.0000       0.024547         0.6680
  51   0.0000       0.031705         0.8627
  52   0.0000       0.032445         0.8829

MULLIKEN ATOMIC CHARGES
-----------------------
   0 C :   -0.266505
   1 C :   -0.540311
   2 C :   -0.035365
   3 C :    0.767147
   4 N :   -0.286002
   5 N :   -0.274047
   6 C :    0.775751
   7 C :   -0.378410
   8 C :   -0.343667
   9 C :   -0.267702
  10 C :   -0.531802
  11 C :   -0.056540
  12 C :   -0.371000
  13 C :   -0.355498
  14 H :    0.233799
  15 H :    0.218312
  16 H :    0.193710
  17 H :    0.216012
  18 H :    0.218273
  19 H :    0.233833
  20 H :    0.214763
  21 H :    0.195228
  22 H :    0.219873
  23 H :    0.220149
Sum of atomic charges:   -0.0000000

LOEWDIN ATOMIC CHARGES
----------------------
   0 C :   -0.142449
   1 C :   -0.129115
   2 C :   -0.061741
   3 C :   -0.515066
   4 N :    0.155544
   5 N :    0.155283
   6 C :   -0.515069
   7 C :   -0.069311
   8 C :   -0.129551
   9 C :   -0.142495
  10 C :   -0.129117
  11 C :   -0.061537
  12 C :   -0.069272
  13 C :   -0.129608
  14 H :    0.169288
  15 H :    0.170306
  16 H :    0.192983
  17 H :    0.189504
  18 H :    0.169672
  19 H :    0.169301
  20 H :    0.170291
  21 H :    0.192964
  22 H :    0.189513
  23 H :    0.169682

  Mayer bond orders larger than 0.100000
B(  0-C ,  1-C ) :   1.2308 B(  0-C , 13-C ) :   1.1931 B(  0-C , 14-H ) :   0.9517
B(  1-C ,  2-C ) :   0.9893 B(  1-C , 15-H ) :   0.9841 B(  2-C ,  3-C ) :   1.1602
B(  2-C ,  4-N ) :  -0.3367 B(  2-C , 16-H ) :   1.0325 B(  3-C ,  4-N ) :   0.1293
B(  3-C ,  5-N ) :   0.4357 B(  3-C , 12-C ) :   1.0391 B(  4-N ,  5-N ) :   0.2268
B(  4-N ,  6-C ) :   0.4405 B(  4-N ,  7-C ) :   0.1379 B(  4-N , 12-C ) :  -0.1695
B(  4-N , 13-C ) :   0.1138 B(  5-N ,  6-C ) :   0.1472 B(  5-N ,  7-C ) :  -0.1689
B(  5-N ,  8-C ) :   0.1144 B(  5-N , 11-C ) :  -0.3364 B(  5-N , 12-C ) :   0.1485
B(  6-C ,  7-C ) :   1.0372 B(  6-C , 11-C ) :   1.1541 B(  7-C ,  8-C ) :   1.1200
B(  7-C , 17-H ) :   0.9848 B(  8-C ,  9-C ) :   1.1870 B(  8-C , 18-H ) :   0.9925
B(  9-C , 10-C ) :   1.2245 B(  9-C , 19-H ) :   0.9527 B( 10-C , 11-C ) :   1.0033
B( 10-C , 20-H ) :   0.9901 B( 11-C , 21-H ) :   1.0299 B( 12-C , 13-C ) :   1.1162
B( 12-C , 22-H ) :   0.9777 B( 13-C , 23-H ) :   0.9900

MP2 TOTAL ENERGY:     -572.491991371 Eh

-----------------------------------------------------------------------------
         ABSORPTION SPECTRUM VIA TRANSITION ELECTRIC DIPOLE MOMENTS
-----------------------------------------------------------------------------
State   Energy    Wavelength  fosc         T2        TX        TY        TZ
        (cm-1)      (nm)                 (au**2)    (au)      (au)      (au)
-----------------------------------------------------------------------------
   1   22179.4    450.9   0.000256952   0.00381   0.06175  -0.00066  -0.00037
   2   30652.9    326.2   1.108271035  11.90282   3.44832  -0.10415  -0.03270
   3   34612.2    288.9   0.059115835   0.56228   0.32267   0.66913   0.10209
   4   34703.4    288.2   0.000036825   0.00035  -0.00194  -0.00398  -0.01816
   5   40771.7    245.3   0.000029753   0.00024   0.00081   0.00344  -0.01509
   6   44985.2    222.3   0.591771578   4.33072  -1.39725  -1.52476  -0.23137
   7   45233.6    221.1   0.000089788   0.00065  -0.00437  -0.00585   0.02450
   8   48861.9    204.7   0.000834200   0.00562   0.00692  -0.00483   0.07449
   9   50068.6    199.7   0.000051376   0.00034  -0.01306  -0.01271  -0.00242
  10   49488.0    202.1   0.000060946   0.00041  -0.00741   0.00741  -0.01719

Dispersion correction           -0.022039949
FINAL SINGLE POINT ENERGY      -571.654551678850

DIPOLE MOMENT
-------------
                                X             Y             Z
Electronic contribution:      0.00021      -0.00396       0.00716
Nuclear contribution   :      0.00025       0.00506      -0.01224
                        -----------------------------------------
Total Dipole Moment    :      0.00046       0.00110      -0.00508
                        -----------------------------------------
Magnitude (a.u.)       :      0.00522
Magnitude (Debye)      :      0.01326

Rotational constants in cm-1:     0.092151     0.009858     0.008906
Rotational constants in MHz :  2762.611416   295.525154   266.995583

                             ****ORCA TERMINATED NORMALLY****
TOTAL RUN TIME: 0 days 1 hours 46 minutes 59 seconds 589 msec
