                         Program Version 5.0.2 -  RELEASE  -
|  1> ! pbe0 d3bj aug-cc-PVTZ RIJCOSX Opt
|  2> %maxcore 4000
|  3> %basis
|  4>  AuxJ "aug-cc-PVTZ/JK"
|  5>  AuxC "aug-cc-PVTZ/C"
|  6>  newGTO H "cc-PVTZ" end
|  7>  newAuxJGTO H "cc-PVTZ/JK" end
|  8>  newAuxCGTO H "cc-PVTZ/C" end
|  9> end
| 10> %cpcm
| 11>  SMD true
| 12>  SMDsolvent "benzene"
| 13> end
| 14> %pal nprocs 4 end
| 15> * xyz 0 1
| 16> C         -4.49800        0.16580        0.04130
| 17> C         -3.64810        1.25580        0.17290
| 18> C         -2.28180        1.07950        0.13650
| 19> C         -1.74760       -0.20460       -0.03390
| 20> N         -0.39610       -0.49050       -0.08470
| 21> N          0.39620        0.49240        0.06880
| 22> C          1.74770        0.20610        0.01640
| 23> C          2.61130        1.28860        0.21030
| 24> C          3.97790        1.09780        0.17750
| 25> C          4.49790       -0.16760       -0.04920
| 26> C          3.64700       -1.24720       -0.24490
| 27> C          2.28080       -1.06910       -0.21380
| 28> C         -2.61030       -1.29680       -0.16830
| 29> C         -3.97690       -1.10790       -0.12920
| 30> H         -5.56800        0.31100        0.07160
| 31> H         -4.06100        2.24580        0.30460
| 32> H         -1.60150        1.91160        0.23620
| 33> H          2.18550        2.26460        0.38580
| 34> H          4.64350        1.93500        0.32870
| 35> H          5.56780       -0.31440       -0.07400
| 36> H          4.05900       -2.23040       -0.42170
| 37> H          1.59970       -1.89300       -0.36320
| 38> H         -2.18350       -2.27940       -0.29950
| 39> H         -4.64170       -1.95310       -0.23180
| 40> *
| 41>
| 42>
| 43> $new_job
| 44> ! b2gp-plyp aug-cc-PVTZ RIJCOSX SP
| 45> %maxcore 4000
| 46> %basis
| 47>  AuxJ "aug-cc-PVTZ/JK"
| 48>  AuxC "aug-cc-PVTZ/C"
| 49>  newGTO H "cc-PVTZ" end
| 50>  newAuxJGTO H "cc-PVTZ/JK" end
| 51>  newAuxCGTO H "cc-PVTZ/C" end
| 52> end
| 53> %cpcm
| 54>  SMD true
| 55>  SMDsolvent "benzene"
| 56> end
| 57> %pal nprocs 4 end
| 58> %tddft
| 59>  nroots 10
| 60>  maxdim 7
| 61> end
| 62> * xyzfile 0 1
| 63>
| 64>                          ****END OF INPUT****
 Total Charge           Charge          ....    0
 Multiplicity           Mult            ....    1
 Number of Electrons    NEL             ....   96
Dispersion correction           -0.024360246
FINAL SINGLE POINT ENERGY      -572.311326905186
Dispersion correction            ... done
Dispersion correction           -0.024355908
FINAL SINGLE POINT ENERGY      -572.312813789073
Dispersion correction            ... done
Dispersion correction           -0.024321674
FINAL SINGLE POINT ENERGY      -572.313155489205
Dispersion correction            ... done
FINAL SINGLE POINT ENERGY      -572.313188981919
FINAL SINGLE POINT ENERGY      -572.313194107646
Dispersion correction            ... done
Dispersion correction           -0.024325761
FINAL SINGLE POINT ENERGY      -572.313194797350
Dispersion correction            ... done
                    ***********************HURRAY********************
Dispersion correction           -0.024325631
FINAL SINGLE POINT ENERGY      -572.313194639680

CARTESIAN COORDINATES (ANGSTROEM)
---------------------------------
  C     -4.505332    0.166046    0.036515
  C     -3.654359    1.259441    0.175109
  C     -2.284286    1.087825    0.145772
  C     -1.756369   -0.193699   -0.023934
  N     -0.378782   -0.489135   -0.071016
  N      0.378695    0.486634    0.063181
  C      1.756268    0.192459    0.011322
  C      2.605780    1.277509    0.203862
  C      3.979484    1.098177    0.175695
  C      4.505362   -0.165197   -0.048942
  C      3.655125   -1.250334   -0.244950
  C      2.284861   -1.079853   -0.215809
  C     -2.606551   -1.286338   -0.162993
  C     -3.980136   -1.106252   -0.132631
  H     -5.578721    0.311027    0.060673
  H     -4.069014    2.251803    0.306821
  H     -1.611609    1.928416    0.251165
  H      2.167848    2.253241    0.376427
  H      4.638971    1.943687    0.328034
  H      5.578847   -0.309450   -0.073406
  H      4.070576   -2.235224   -0.422337
  H      1.612731   -1.913933   -0.366598
  H     -2.169384   -2.268787   -0.294513
  H     -4.640208   -1.958065   -0.241047

 Multiplicity           Mult            ....    1
 Number of Electrons    NEL             ....   96
 Basis Dimension        Dim             ....  784

ORBITAL ENERGIES
----------------

  NO   OCC          E(Eh)            E(eV)
   0   2.0000     -15.084941      -410.4821
   1   2.0000     -15.083915      -410.4542
   2   2.0000     -10.811595      -294.1985
   3   2.0000     -10.811589      -294.1983
   4   2.0000     -10.785887      -293.4989
   5   2.0000     -10.785881      -293.4987
   6   2.0000     -10.785045      -293.4760
   7   2.0000     -10.785029      -293.4756
   8   2.0000     -10.784082      -293.4498
   9   2.0000     -10.784069      -293.4494
  10   2.0000     -10.783077      -293.4224
  11   2.0000     -10.783060      -293.4220
  12   2.0000     -10.782882      -293.4171
  13   2.0000     -10.782878      -293.4170
  14   2.0000      -1.238321       -33.6964
  15   2.0000      -1.052143       -28.6303
  16   2.0000      -1.031237       -28.0614
  17   2.0000      -0.963283       -26.2123
  18   2.0000      -0.912520       -24.8309
  19   2.0000      -0.911833       -24.8122
  20   2.0000      -0.899820       -24.4853
  21   2.0000      -0.824909       -22.4469
  22   2.0000      -0.753274       -20.4976
  23   2.0000      -0.747742       -20.3471
  24   2.0000      -0.728991       -19.8368
  25   2.0000      -0.689734       -18.7686
  26   2.0000      -0.645903       -17.5759
  27   2.0000      -0.620350       -16.8806
  28   2.0000      -0.593420       -16.1478
  29   2.0000      -0.586645       -15.9634
  30   2.0000      -0.558559       -15.1992
  31   2.0000      -0.544632       -14.8202
  32   2.0000      -0.532302       -14.4847
  33   2.0000      -0.529306       -14.4031
  34   2.0000      -0.528680       -14.3861
  35   2.0000      -0.524447       -14.2709
  36   2.0000      -0.507006       -13.7963
  37   2.0000      -0.465702       -12.6724
  38   2.0000      -0.456010       -12.4087
  39   2.0000      -0.454674       -12.3723
  40   2.0000      -0.435793       -11.8585
  41   2.0000      -0.435540       -11.8516
  42   2.0000      -0.433725       -11.8023
  43   2.0000      -0.333874        -9.0852
  44   2.0000      -0.329791        -8.9741
  45   2.0000      -0.314858        -8.5677
  46   2.0000      -0.314384        -8.5548
  47   2.0000      -0.279670        -7.6102
  48   0.0000      -0.021228        -0.5776
  49   0.0000       0.030013         0.8167
  50   0.0000       0.030766         0.8372
  51   0.0000       0.037125         1.0102
  52   0.0000       0.045480         1.2376

MULLIKEN ATOMIC CHARGES
-----------------------
   0 C :   -0.274622
   1 C :   -0.561157
   2 C :   -0.015189
   3 C :    0.738657
   4 N :   -0.284416
   5 N :   -0.270201
   6 C :    0.747460
   7 C :   -0.375246
   8 C :   -0.359317
   9 C :   -0.273339
  10 C :   -0.554511
  11 C :   -0.040689
  12 C :   -0.371442
  13 C :   -0.370761
  14 H :    0.246327
  15 H :    0.226614
  16 H :    0.203237
  17 H :    0.228519
  18 H :    0.224450
  19 H :    0.246497
  20 H :    0.223415
  21 H :    0.204896
  22 H :    0.232496
  23 H :    0.228322
Sum of atomic charges:    0.0000000

LOEWDIN ATOMIC CHARGES
----------------------
   0 C :   -0.142956
   1 C :   -0.129678
   2 C :   -0.061253
   3 C :   -0.515872
   4 N :    0.155854
   5 N :    0.155619
   6 C :   -0.515881
   7 C :   -0.068869
   8 C :   -0.130155
   9 C :   -0.143008
  10 C :   -0.129679
  11 C :   -0.061070
  12 C :   -0.068844
  13 C :   -0.130207
  14 H :    0.169564
  15 H :    0.170539
  16 H :    0.193266
  17 H :    0.189737
  18 H :    0.169887
  19 H :    0.169577
  20 H :    0.170523
  21 H :    0.193251
  22 H :    0.189755
  23 H :    0.169899

  Mayer bond orders larger than 0.100000
B(  0-C ,  1-C ) :   1.2207 B(  0-C , 13-C ) :   1.1867 B(  0-C , 14-H ) :   0.9523
B(  1-C ,  2-C ) :   0.9638 B(  1-C , 15-H ) :   0.9916 B(  2-C ,  3-C ) :   1.1702
B(  2-C ,  4-N ) :  -0.3630 B(  2-C , 16-H ) :   1.0358 B(  3-C ,  4-N ) :   0.1459
B(  3-C ,  5-N ) :   0.4205 B(  3-C , 12-C ) :   1.0600 B(  4-N ,  5-N ) :   0.2805
B(  4-N ,  6-C ) :   0.4272 B(  4-N ,  7-C ) :   0.1463 B(  4-N , 12-C ) :  -0.1908
B(  4-N , 13-C ) :   0.1173 B(  5-N ,  6-C ) :   0.1692 B(  5-N ,  7-C ) :  -0.1923
B(  5-N ,  8-C ) :   0.1203 B(  5-N , 11-C ) :  -0.3639 B(  5-N , 12-C ) :   0.1589
B(  6-C ,  7-C ) :   1.0574 B(  6-C , 11-C ) :   1.1645 B(  7-C ,  8-C ) :   1.1059
B(  7-C , 17-H ) :   0.9856 B(  8-C ,  9-C ) :   1.1797 B(  8-C , 18-H ) :   1.0030
B(  9-C , 10-C ) :   1.2152 B(  9-C , 19-H ) :   0.9532 B( 10-C , 11-C ) :   0.9808
B( 10-C , 20-H ) :   0.9967 B( 11-C , 21-H ) :   1.0331 B( 12-C , 13-C ) :   1.1055
B( 12-C , 22-H ) :   0.9773 B( 13-C , 23-H ) :   0.9960

MP2 TOTAL ENERGY:     -572.377433341 Eh

-----------------------------------------------------------------------------
         ABSORPTION SPECTRUM VIA TRANSITION ELECTRIC DIPOLE MOMENTS
-----------------------------------------------------------------------------
State   Energy    Wavelength  fosc         T2        TX        TY        TZ
        (cm-1)      (nm)                 (au**2)    (au)      (au)      (au)
-----------------------------------------------------------------------------
   1   22999.3    434.8   0.000235352   0.00337   0.05804  -0.00034  -0.00030
   2   31674.8    315.7   1.092447829  11.35434   3.36813  -0.09504  -0.03131
   3   36089.4    277.1   0.056378902   0.51430   0.27694   0.65393   0.09986
   4   36175.0    276.4   0.000037396   0.00034   0.00204   0.00474   0.01771
   5   42906.2    233.1   0.000035286   0.00027  -0.00112  -0.00379   0.01597
   6   46213.2    216.4   0.760004869   5.41409  -1.47184  -1.78196  -0.26906
   7   50039.5    199.8   0.003421507   0.02251  -0.08759  -0.09869  -0.07140
   8   46473.7    215.2   0.000322150   0.00228   0.00422   0.00855  -0.04681
   9   51293.5    195.0   0.000125232   0.00080   0.02213   0.01730   0.00385
  10   49774.5    200.9   0.000058491   0.00039  -0.00357   0.00710  -0.01799

Dispersion correction           -0.016554779
FINAL SINGLE POINT ENERGY      -571.331783177166

DIPOLE MOMENT
-------------
                                X             Y             Z
Electronic contribution:      0.00008      -0.00337       0.00584
Nuclear contribution   :      0.00019       0.00433      -0.01052
                        -----------------------------------------
Total Dipole Moment    :      0.00027       0.00096      -0.00468
                        -----------------------------------------
Magnitude (a.u.)       :      0.00478
Magnitude (Debye)      :      0.01216

Rotational constants in cm-1:     0.092146     0.009858     0.008906
Rotational constants in MHz :  2762.452663   295.533137   267.000197

                             ****ORCA TERMINATED NORMALLY****
TOTAL RUN TIME: 0 days 1 hours 30 minutes 3 seconds 483 msec
