                         Program Version 5.0.2 -  RELEASE  -
|  1> ! pbe0 aug-cc-PVTZ RIJCOSX Opt
|  2> %maxcore 4000
|  3> %basis
|  4>  AuxJ "aug-cc-PVTZ/JK"
|  5>  AuxC "aug-cc-PVTZ/C"
|  6>  newGTO H "cc-PVTZ" end
|  7>  newAuxJGTO H "cc-PVTZ/JK" end
|  8>  newAuxCGTO H "cc-PVTZ/C" end
|  9> end
| 10> %cpcm
| 11>  SMD true
| 12>  SMDsolvent "benzene"
| 13> end
| 14> %pal nprocs 4 end
| 15> * xyz 0 1
| 16> C         -4.49800        0.16580        0.04130
| 17> C         -3.64810        1.25580        0.17290
| 18> C         -2.28180        1.07950        0.13650
| 19> C         -1.74760       -0.20460       -0.03390
| 20> N         -0.39610       -0.49050       -0.08470
| 21> N          0.39620        0.49240        0.06880
| 22> C          1.74770        0.20610        0.01640
| 23> C          2.61130        1.28860        0.21030
| 24> C          3.97790        1.09780        0.17750
| 25> C          4.49790       -0.16760       -0.04920
| 26> C          3.64700       -1.24720       -0.24490
| 27> C          2.28080       -1.06910       -0.21380
| 28> C         -2.61030       -1.29680       -0.16830
| 29> C         -3.97690       -1.10790       -0.12920
| 30> H         -5.56800        0.31100        0.07160
| 31> H         -4.06100        2.24580        0.30460
| 32> H         -1.60150        1.91160        0.23620
| 33> H          2.18550        2.26460        0.38580
| 34> H          4.64350        1.93500        0.32870
| 35> H          5.56780       -0.31440       -0.07400
| 36> H          4.05900       -2.23040       -0.42170
| 37> H          1.59970       -1.89300       -0.36320
| 38> H         -2.18350       -2.27940       -0.29950
| 39> H         -4.64170       -1.95310       -0.23180
| 40> *
| 41>
| 42>
| 43> $new_job
| 44> ! pbe0 aug-cc-PVTZ RIJCOSX SP
| 45> %maxcore 4000
| 46> %basis
| 47>  AuxJ "aug-cc-PVTZ/JK"
| 48>  AuxC "aug-cc-PVTZ/C"
| 49>  newGTO H "cc-PVTZ" end
| 50>  newAuxJGTO H "cc-PVTZ/JK" end
| 51>  newAuxCGTO H "cc-PVTZ/C" end
| 52> end
| 53> %cpcm
| 54>  SMD true
| 55>  SMDsolvent "benzene"
| 56> end
| 57> %pal nprocs 4 end
| 58> %tddft
| 59>  nroots 10
| 60>  maxdim 7
| 61> end
| 62> * xyzfile 0 1
| 63>
| 64>                          ****END OF INPUT****
 Total Charge           Charge          ....    0
 Multiplicity           Mult            ....    1
 Number of Electrons    NEL             ....   96
FINAL SINGLE POINT ENERGY      -572.286966658739
FINAL SINGLE POINT ENERGY      -572.288488457634
FINAL SINGLE POINT ENERGY      -572.288836588574
FINAL SINGLE POINT ENERGY      -572.288870472470
FINAL SINGLE POINT ENERGY      -572.288876210047
FINAL SINGLE POINT ENERGY      -572.288876114245
                    ***********************HURRAY********************
FINAL SINGLE POINT ENERGY      -572.288876380567

CARTESIAN COORDINATES (ANGSTROEM)
---------------------------------
  C     -4.508665    0.166116    0.036537
  C     -3.657980    1.259913    0.174809
  C     -2.287488    1.089007    0.145590
  C     -1.758082   -0.192346   -0.023705
  N     -0.379622   -0.488649   -0.070933
  N      0.379495    0.485946    0.063098
  C      1.757961    0.190976    0.011132
  C      2.607734    1.276344    0.204073
  C      3.981769    1.097885    0.176018
  C      4.508711   -0.165146   -0.048944
  C      3.658857   -1.250642   -0.245384
  C      2.288156   -1.080999   -0.216353
  C     -2.608613   -1.285341   -0.162454
  C     -3.982515   -1.106003   -0.132196
  H     -5.582306    0.310596    0.060616
  H     -4.073048    2.252351    0.306217
  H     -1.616255    1.931000    0.250874
  H      2.170145    2.252380    0.376968
  H      4.640662    1.944035    0.328737
  H      5.582460   -0.308801   -0.073341
  H      4.074808   -2.235474   -0.423092
  H      1.617561   -1.916446   -0.367718
  H     -2.171874   -2.268217   -0.293743
  H     -4.642069   -1.958483   -0.240406

 Multiplicity           Mult            ....    1
 Number of Electrons    NEL             ....   96
 Basis Dimension        Dim             ....  784

ORBITAL ENERGIES
----------------

  NO   OCC          E(Eh)            E(eV)
   0   2.0000     -14.435477      -392.8093
   1   2.0000     -14.434875      -392.7929
   2   2.0000     -10.261725      -279.2357
   3   2.0000     -10.261709      -279.2353
   4   2.0000     -10.236999      -278.5629
   5   2.0000     -10.236993      -278.5627
   6   2.0000     -10.235762      -278.5292
   7   2.0000     -10.235753      -278.5290
   8   2.0000     -10.235267      -278.5158
   9   2.0000     -10.235262      -278.5156
  10   2.0000     -10.234463      -278.4939
  11   2.0000     -10.234457      -278.4937
  12   2.0000     -10.234104      -278.4841
  13   2.0000     -10.234073      -278.4833
  14   2.0000      -1.074719       -29.2446
  15   2.0000      -0.906948       -24.6793
  16   2.0000      -0.888444       -24.1758
  17   2.0000      -0.828121       -22.5343
  18   2.0000      -0.781017       -21.2525
  19   2.0000      -0.780108       -21.2278
  20   2.0000      -0.770206       -20.9584
  21   2.0000      -0.705032       -19.1849
  22   2.0000      -0.643655       -17.5147
  23   2.0000      -0.637357       -17.3434
  24   2.0000      -0.621102       -16.9010
  25   2.0000      -0.587539       -15.9877
  26   2.0000      -0.553213       -15.0537
  27   2.0000      -0.524858       -14.2821
  28   2.0000      -0.501688       -13.6516
  29   2.0000      -0.494091       -13.4449
  30   2.0000      -0.470083       -12.7916
  31   2.0000      -0.458088       -12.4652
  32   2.0000      -0.457293       -12.4436
  33   2.0000      -0.447012       -12.1638
  34   2.0000      -0.443378       -12.0649
  35   2.0000      -0.439978       -11.9724
  36   2.0000      -0.416548       -11.3348
  37   2.0000      -0.401490       -10.9251
  38   2.0000      -0.376948       -10.2573
  39   2.0000      -0.375390       -10.2149
  40   2.0000      -0.374551       -10.1920
  41   2.0000      -0.358553        -9.7567
  42   2.0000      -0.357799        -9.7362
  43   2.0000      -0.295067        -8.0292
  44   2.0000      -0.276557        -7.5255
  45   2.0000      -0.276232        -7.5166
  46   2.0000      -0.248599        -6.7647
  47   2.0000      -0.247358        -6.7310
  48   0.0000      -0.088029        -2.3954
  49   0.0000      -0.015905        -0.4328
  50   0.0000      -0.012861        -0.3500
  51   0.0000      -0.001095        -0.0298
  52   0.0000       0.008434         0.2295

MULLIKEN ATOMIC CHARGES
-----------------------
   0 C :   -0.287246
   1 C :   -0.447768
   2 C :   -0.170661
   3 C :    0.729076
   4 N :   -0.283344
   5 N :   -0.275898
   6 C :    0.729714
   7 C :   -0.413342
   8 C :   -0.295405
   9 C :   -0.285072
  10 C :   -0.443522
  11 C :   -0.182036
  12 C :   -0.412661
  13 C :   -0.299025
  14 H :    0.244264
  15 H :    0.234146
  16 H :    0.218889
  17 H :    0.231649
  18 H :    0.238376
  19 H :    0.244130
  20 H :    0.232649
  21 H :    0.219935
  22 H :    0.233269
  23 H :    0.239885
Sum of atomic charges:    0.0000000

LOEWDIN ATOMIC CHARGES
----------------------
   0 C :   -0.142671
   1 C :   -0.129225
   2 C :   -0.063659
   3 C :   -0.516264
   4 N :    0.154056
   5 N :    0.153801
   6 C :   -0.516282
   7 C :   -0.071625
   8 C :   -0.129483
   9 C :   -0.142726
  10 C :   -0.129235
  11 C :   -0.063453
  12 C :   -0.071583
  13 C :   -0.129529
  14 H :    0.170728
  15 H :    0.171787
  16 H :    0.194160
  17 H :    0.191007
  18 H :    0.171267
  19 H :    0.170740
  20 H :    0.171780
  21 H :    0.194136
  22 H :    0.191001
  23 H :    0.171271

  Mayer bond orders larger than 0.100000
B(  0-C ,  1-C ) :   1.3032 B(  0-C , 13-C ) :   1.2664 B(  0-C , 14-H ) :   0.9003
B(  1-C ,  2-C ) :   1.1649 B(  1-C , 15-H ) :   0.9249 B(  2-C ,  3-C ) :   1.1840
B(  2-C ,  4-N ) :  -0.2101 B(  2-C , 16-H ) :   0.9487 B(  3-C ,  4-N ) :   0.1605
B(  3-C ,  5-N ) :   0.4525 B(  3-C , 12-C ) :   1.0421 B(  4-N ,  5-N ) :   0.2068
B(  4-N ,  6-C ) :   0.4555 B(  4-N ,  7-C ) :   0.1052 B(  5-N ,  6-C ) :   0.1712
B(  5-N , 11-C ) :  -0.2108 B(  5-N , 12-C ) :   0.1102 B(  6-C ,  7-C ) :   1.0424
B(  6-C , 11-C ) :   1.1808 B(  7-C ,  8-C ) :   1.2072 B(  7-C , 17-H ) :   0.9238
B(  8-C ,  9-C ) :   1.2635 B(  8-C , 18-H ) :   0.9253 B(  9-C , 10-C ) :   1.2985
B(  9-C , 19-H ) :   0.9011 B( 10-C , 11-C ) :   1.1726 B( 10-C , 20-H ) :   0.9272
B( 11-C , 21-H ) :   0.9468 B( 12-C , 13-C ) :   1.2063 B( 12-C , 22-H ) :   0.9206
B( 13-C , 23-H ) :   0.9225

-----------------------------------------------------------------------------
         ABSORPTION SPECTRUM VIA TRANSITION ELECTRIC DIPOLE MOMENTS
-----------------------------------------------------------------------------
State   Energy    Wavelength  fosc         T2        TX        TY        TZ
        (cm-1)      (nm)                 (au**2)    (au)      (au)      (au)
-----------------------------------------------------------------------------
   1   21223.4    471.2   0.000220221   0.00342  -0.05843   0.00148   0.00049
   2   30445.5    328.5   1.216372205  13.15284  -3.62416   0.13001   0.03768
   3   34318.9    291.4   0.067588452   0.64836   0.49322   0.62927   0.09548
   4   34382.8    290.8   0.000029402   0.00028  -0.00069  -0.00037  -0.01676
   5   40280.7    248.3   0.000010791   0.00009   0.00104  -0.00210   0.00909
   6   41934.4    238.5   0.000296863   0.00233   0.01607   0.04494   0.00726
   7   42660.4    234.4   0.000050417   0.00039  -0.01598   0.01129  -0.00246
   8   44384.2    225.3   0.001620430   0.01202  -0.00859  -0.02911   0.10535
   9   44908.8    222.7   0.320238113   2.34756   1.16359   0.98550   0.14974
  10   45294.9    220.8   0.000113623   0.00083   0.00075   0.00490  -0.02831

FINAL SINGLE POINT ENERGY      -572.192175492197

DIPOLE MOMENT
-------------
                                X             Y             Z
Electronic contribution:      0.00009      -0.00359       0.00575
Nuclear contribution   :      0.00026       0.00469      -0.01068
                        -----------------------------------------
Total Dipole Moment    :      0.00036       0.00110      -0.00493
                        -----------------------------------------
Magnitude (a.u.)       :      0.00506
Magnitude (Debye)      :      0.01286

Rotational constants in cm-1:     0.092145     0.009842     0.008893
Rotational constants in MHz :  2762.433728   295.047209   266.604062

                             ****ORCA TERMINATED NORMALLY****
TOTAL RUN TIME: 0 days 1 hours 3 minutes 29 seconds 379 msec
