                         Program Version 5.0.2 -  RELEASE  -
|  1> ! wb97x-d3 aug-cc-PVTZ RIJCOSX Opt
|  2> %maxcore 4000
|  3> %basis
|  4>  AuxJ "aug-cc-PVTZ/JK"
|  5>  AuxC "aug-cc-PVTZ/C"
|  6>  newGTO H "cc-PVTZ" end
|  7>  newAuxJGTO H "cc-PVTZ/JK" end
|  8>  newAuxCGTO H "cc-PVTZ/C" end
|  9> end
| 10> %cpcm
| 11>  SMD true
| 12>  SMDsolvent "benzene"
| 13> end
| 14> %pal nprocs 4 end
| 15> * xyz 0 1
| 16> C         -4.49800        0.16580        0.04130
| 17> C         -3.64810        1.25580        0.17290
| 18> C         -2.28180        1.07950        0.13650
| 19> C         -1.74760       -0.20460       -0.03390
| 20> N         -0.39610       -0.49050       -0.08470
| 21> N          0.39620        0.49240        0.06880
| 22> C          1.74770        0.20610        0.01640
| 23> C          2.61130        1.28860        0.21030
| 24> C          3.97790        1.09780        0.17750
| 25> C          4.49790       -0.16760       -0.04920
| 26> C          3.64700       -1.24720       -0.24490
| 27> C          2.28080       -1.06910       -0.21380
| 28> C         -2.61030       -1.29680       -0.16830
| 29> C         -3.97690       -1.10790       -0.12920
| 30> H         -5.56800        0.31100        0.07160
| 31> H         -4.06100        2.24580        0.30460
| 32> H         -1.60150        1.91160        0.23620
| 33> H          2.18550        2.26460        0.38580
| 34> H          4.64350        1.93500        0.32870
| 35> H          5.56780       -0.31440       -0.07400
| 36> H          4.05900       -2.23040       -0.42170
| 37> H          1.59970       -1.89300       -0.36320
| 38> H         -2.18350       -2.27940       -0.29950
| 39> H         -4.64170       -1.95310       -0.23180
| 40> *
| 41>
| 42>
| 43> $new_job
| 44> ! wb97x-d3 aug-cc-PVTZ RIJCOSX SP
| 45> %maxcore 4000
| 46> %basis
| 47>  AuxJ "aug-cc-PVTZ/JK"
| 48>  AuxC "aug-cc-PVTZ/C"
| 49>  newGTO H "cc-PVTZ" end
| 50>  newAuxJGTO H "cc-PVTZ/JK" end
| 51>  newAuxCGTO H "cc-PVTZ/C" end
| 52> end
| 53> %cpcm
| 54>  SMD true
| 55>  SMDsolvent "benzene"
| 56> end
| 57> %pal nprocs 4 end
| 58> %tddft
| 59>  nroots 10
| 60>  maxdim 7
| 61> end
| 62> * xyzfile 0 1
| 63>
| 64>                          ****END OF INPUT****
 Total Charge           Charge          ....    0
 Multiplicity           Mult            ....    1
 Number of Electrons    NEL             ....   96
Dispersion correction           -0.007158778
FINAL SINGLE POINT ENERGY      -572.790695842721
Dispersion correction            ... done
Dispersion correction           -0.007160030
FINAL SINGLE POINT ENERGY      -572.793424427122
Dispersion correction            ... done
Dispersion correction           -0.007145671
FINAL SINGLE POINT ENERGY      -572.794066898944
Dispersion correction            ... done
FINAL SINGLE POINT ENERGY      -572.794113950397
FINAL SINGLE POINT ENERGY      -572.794121578765
FINAL SINGLE POINT ENERGY      -572.794120287185
FINAL SINGLE POINT ENERGY      -572.794114696656
FINAL SINGLE POINT ENERGY      -572.793995112315
FINAL SINGLE POINT ENERGY      -572.794103270929
FINAL SINGLE POINT ENERGY      -572.794099768134
FINAL SINGLE POINT ENERGY      -572.794033999566
FINAL SINGLE POINT ENERGY      -572.794105147415
FINAL SINGLE POINT ENERGY      -572.794111027932
FINAL SINGLE POINT ENERGY      -572.794096285394
FINAL SINGLE POINT ENERGY      -572.794127712334
Dispersion correction           -0.007142150
FINAL SINGLE POINT ENERGY      -572.794131445526
Dispersion correction            ... done
Dispersion correction           -0.007142459
FINAL SINGLE POINT ENERGY      -572.794132322439
Dispersion correction            ... done
                    ***********************HURRAY********************
Dispersion correction           -0.007142458
FINAL SINGLE POINT ENERGY      -572.794131738958

CARTESIAN COORDINATES (ANGSTROEM)
---------------------------------
  C     -4.508864    0.162523    0.039708
  C     -3.665170    1.265336   -0.041347
  C     -2.293560    1.095371   -0.071031
  C     -1.764348   -0.191997   -0.021772
  N     -0.372283   -0.483859   -0.059003
  N      0.373547    0.489703    0.087224
  C      1.765079    0.198345    0.019782
  C      2.612625    1.225943    0.410246
  C      3.985803    1.037860    0.383827
  C      4.507888   -0.171185   -0.048491
  C      3.656309   -1.193752   -0.452618
  C      2.285880   -1.016601   -0.419618
  C     -2.604047   -1.295478    0.046460
  C     -3.978067   -1.117287    0.085330
  H     -5.581746    0.304852    0.062094
  H     -4.083968    2.262499   -0.086042
  H     -1.627678    1.944345   -0.138477
  H      2.180535    2.162450    0.739076
  H      4.647095    1.835904    0.695079
  H      5.579927   -0.318439   -0.077605
  H      4.066985   -2.133241   -0.799759
  H      1.613838   -1.802366   -0.734968
  H     -2.163452   -2.283896    0.073155
  H     -4.632530   -1.977029    0.145152

 Multiplicity           Mult            ....    1
 Number of Electrons    NEL             ....   96
 Basis Dimension        Dim             ....  784

ORBITAL ENERGIES
----------------

  NO   OCC          E(Eh)            E(eV)
   0   2.0000     -14.479178      -393.9985
   1   2.0000     -14.478581      -393.9822
   2   2.0000     -10.314820      -280.6805
   3   2.0000     -10.314800      -280.6800
   4   2.0000     -10.288806      -279.9726
   5   2.0000     -10.288709      -279.9700
   6   2.0000     -10.288204      -279.9563
   7   2.0000     -10.288179      -279.9556
   8   2.0000     -10.287646      -279.9411
   9   2.0000     -10.287503      -279.9372
  10   2.0000     -10.287018      -279.9240
  11   2.0000     -10.286872      -279.9200
  12   2.0000     -10.286862      -279.9197
  13   2.0000     -10.286815      -279.9185
  14   2.0000      -1.168638       -31.8003
  15   2.0000      -0.999343       -27.1935
  16   2.0000      -0.981630       -26.7115
  17   2.0000      -0.918468       -24.9928
  18   2.0000      -0.873545       -23.7704
  19   2.0000      -0.872716       -23.7478
  20   2.0000      -0.862930       -23.4815
  21   2.0000      -0.794276       -21.6133
  22   2.0000      -0.732853       -19.9419
  23   2.0000      -0.727796       -19.8043
  24   2.0000      -0.710958       -19.3462
  25   2.0000      -0.676583       -18.4107
  26   2.0000      -0.641746       -17.4628
  27   2.0000      -0.613703       -16.6997
  28   2.0000      -0.587506       -15.9868
  29   2.0000      -0.580592       -15.7987
  30   2.0000      -0.558395       -15.1947
  31   2.0000      -0.547484       -14.8978
  32   2.0000      -0.543468       -14.7885
  33   2.0000      -0.529533       -14.4093
  34   2.0000      -0.529425       -14.4064
  35   2.0000      -0.524524       -14.2730
  36   2.0000      -0.506168       -13.7735
  37   2.0000      -0.488192       -13.2844
  38   2.0000      -0.461887       -12.5686
  39   2.0000      -0.457991       -12.4626
  40   2.0000      -0.456792       -12.4299
  41   2.0000      -0.440113       -11.9761
  42   2.0000      -0.439638       -11.9632
  43   2.0000      -0.366678        -9.9778
  44   2.0000      -0.349746        -9.5171
  45   2.0000      -0.349653        -9.5145
  46   2.0000      -0.333931        -9.0867
  47   2.0000      -0.317119        -8.6293
  48   0.0000      -0.017287        -0.4704
  49   0.0000       0.051929         1.4131
  50   0.0000       0.052354         1.4246
  51   0.0000       0.055022         1.4972
  52   0.0000       0.057204         1.5566

MULLIKEN ATOMIC CHARGES
-----------------------
   0 C :   -0.245847
   1 C :   -0.486324
   2 C :   -0.266854
   3 C :    0.838166
   4 N :   -0.235698
   5 N :   -0.251751
   6 C :    0.873844
   7 C :   -0.471873
   8 C :   -0.278934
   9 C :   -0.244311
  10 C :   -0.467336
  11 C :   -0.290582
  12 C :   -0.439987
  13 C :   -0.294116
  14 H :    0.231735
  15 H :    0.233360
  16 H :    0.212147
  17 H :    0.225075
  18 H :    0.229077
  19 H :    0.228377
  20 H :    0.227795
  21 H :    0.211747
  22 H :    0.231444
  23 H :    0.230845
Sum of atomic charges:    0.0000000

LOEWDIN ATOMIC CHARGES
----------------------
   0 C :   -0.142632
   1 C :   -0.128061
   2 C :   -0.065771
   3 C :   -0.512065
   4 N :    0.155816
   5 N :    0.156998
   6 C :   -0.511909
   7 C :   -0.071426
   8 C :   -0.128721
   9 C :   -0.142783
  10 C :   -0.128273
  11 C :   -0.066248
  12 C :   -0.071471
  13 C :   -0.128569
  14 H :    0.169393
  15 H :    0.170166
  16 H :    0.193395
  17 H :    0.189763
  18 H :    0.169709
  19 H :    0.169403
  20 H :    0.170218
  21 H :    0.193459
  22 H :    0.189904
  23 H :    0.169706

  Mayer bond orders larger than 0.100000
B(  0-C ,  1-C ) :   1.2055 B(  0-C , 13-C ) :   1.1520 B(  0-C , 14-H ) :   0.9558
B(  1-C ,  2-C ) :   1.0867 B(  1-C , 15-H ) :   0.9652 B(  2-C ,  3-C ) :   1.0386
B(  2-C ,  4-N ) :  -0.2769 B(  2-C , 16-H ) :   1.0052 B(  3-C ,  4-N ) :   0.2617
B(  3-C ,  5-N ) :   0.4032 B(  3-C , 12-C ) :   0.8828 B(  4-N ,  5-N ) :   0.5526
B(  4-N ,  6-C ) :   0.3932 B(  4-N , 12-C ) :  -0.1319 B(  5-N ,  6-C ) :   0.2876
B(  5-N ,  7-C ) :  -0.1220 B(  5-N , 11-C ) :  -0.2788 B(  6-C ,  7-C ) :   0.8690
B(  6-C , 11-C ) :   1.0347 B(  7-C ,  8-C ) :   1.0987 B(  7-C , 17-H ) :   0.9853
B(  8-C ,  9-C ) :   1.1346 B(  8-C , 18-H ) :   0.9758 B(  9-C , 10-C ) :   1.1980
B(  9-C , 19-H ) :   0.9624 B( 10-C , 11-C ) :   1.1012 B( 10-C , 20-H ) :   0.9721
B( 11-C , 21-H ) :   1.0019 B( 12-C , 13-C ) :   1.0933 B( 12-C , 22-H ) :   0.9726
B( 13-C , 23-H ) :   0.9739

-----------------------------------------------------------------------------
         ABSORPTION SPECTRUM VIA TRANSITION ELECTRIC DIPOLE MOMENTS
-----------------------------------------------------------------------------
State   Energy    Wavelength  fosc         T2        TX        TY        TZ
        (cm-1)      (nm)                 (au**2)    (au)      (au)      (au)
-----------------------------------------------------------------------------
   1   23117.8    432.6   0.008199594   0.11677   0.34154  -0.01024  -0.00358
   2   34342.8    291.2   1.111223811  10.65224   3.26233  -0.09272  -0.02882
   3   39803.9    251.2   0.047920687   0.39634   0.18153   0.59615   0.08940
   4   39865.9    250.8   0.002051464   0.01694  -0.00483   0.01527  -0.12917
   5   45373.8    220.4   0.002601518   0.01888   0.00449  -0.01433   0.13656
   6   50021.5    199.9   0.502617492   3.30793   1.08443   1.44418   0.21517
   7   50445.9    198.2   0.014389801   0.09391   0.01793  -0.03146   0.30430
   8   51492.4    194.2   0.236864342   1.51437   1.08277   0.57852   0.08544
   9   51782.8    193.1   0.005074946   0.03226   0.00973   0.03483  -0.17595
  10   52423.3    190.8   0.000534178   0.00335  -0.00220  -0.00963   0.05707

Dispersion correction           -0.007142458
FINAL SINGLE POINT ENERGY      -572.688799325428

DIPOLE MOMENT
-------------
                                X             Y             Z
Electronic contribution:     -0.00261       0.00960       0.04826
Nuclear contribution   :     -0.00149      -0.00798      -0.08556
                        -----------------------------------------
Total Dipole Moment    :     -0.00410       0.00162      -0.03730
                        -----------------------------------------
Magnitude (a.u.)       :      0.03756
Magnitude (Debye)      :      0.09547

Rotational constants in cm-1:     0.092200     0.009796     0.008922
Rotational constants in MHz :  2764.087808   293.679447   267.476742

                             ****ORCA TERMINATED NORMALLY****
TOTAL RUN TIME: 0 days 4 hours 20 minutes 56 seconds 852 msec
