                         Program Version 5.0.2 -  RELEASE  -
|  1> ! x3lyp aug-cc-PVTZ RIJCOSX Opt
|  2> %maxcore 4000
|  3> %basis
|  4>  AuxJ "aug-cc-PVTZ/JK"
|  5>  AuxC "aug-cc-PVTZ/C"
|  6>  newGTO H "cc-PVTZ" end
|  7>  newAuxJGTO H "cc-PVTZ/JK" end
|  8>  newAuxCGTO H "cc-PVTZ/C" end
|  9> end
| 10> %cpcm
| 11>  SMD true
| 12>  SMDsolvent "benzene"
| 13> end
| 14> %pal nprocs 4 end
| 15> * xyz 0 1
| 16> C         -4.49800        0.16580        0.04130
| 17> C         -3.64810        1.25580        0.17290
| 18> C         -2.28180        1.07950        0.13650
| 19> C         -1.74760       -0.20460       -0.03390
| 20> N         -0.39610       -0.49050       -0.08470
| 21> N          0.39620        0.49240        0.06880
| 22> C          1.74770        0.20610        0.01640
| 23> C          2.61130        1.28860        0.21030
| 24> C          3.97790        1.09780        0.17750
| 25> C          4.49790       -0.16760       -0.04920
| 26> C          3.64700       -1.24720       -0.24490
| 27> C          2.28080       -1.06910       -0.21380
| 28> C         -2.61030       -1.29680       -0.16830
| 29> C         -3.97690       -1.10790       -0.12920
| 30> H         -5.56800        0.31100        0.07160
| 31> H         -4.06100        2.24580        0.30460
| 32> H         -1.60150        1.91160        0.23620
| 33> H          2.18550        2.26460        0.38580
| 34> H          4.64350        1.93500        0.32870
| 35> H          5.56780       -0.31440       -0.07400
| 36> H          4.05900       -2.23040       -0.42170
| 37> H          1.59970       -1.89300       -0.36320
| 38> H         -2.18350       -2.27940       -0.29950
| 39> H         -4.64170       -1.95310       -0.23180
| 40> *
| 41>
| 42>
| 43> $new_job
| 44> ! x3lyp aug-cc-PVTZ RIJCOSX SP
| 45> %maxcore 4000
| 46> %basis
| 47>  AuxJ "aug-cc-PVTZ/JK"
| 48>  AuxC "aug-cc-PVTZ/C"
| 49>  newGTO H "cc-PVTZ" end
| 50>  newAuxJGTO H "cc-PVTZ/JK" end
| 51>  newAuxCGTO H "cc-PVTZ/C" end
| 52> end
| 53> %cpcm
| 54>  SMD true
| 55>  SMDsolvent "benzene"
| 56> end
| 57> %pal nprocs 4 end
| 58> %tddft
| 59>  nroots 10
| 60>  maxdim 7
| 61> end
| 62> * xyzfile 0 1
| 63>
| 64>                          ****END OF INPUT****
 Total Charge           Charge          ....    0
 Multiplicity           Mult            ....    1
 Number of Electrons    NEL             ....   96
FINAL SINGLE POINT ENERGY      -572.467425216387
FINAL SINGLE POINT ENERGY      -572.468945120663
FINAL SINGLE POINT ENERGY      -572.469319443248
FINAL SINGLE POINT ENERGY      -572.469359036107
FINAL SINGLE POINT ENERGY      -572.469365627914
FINAL SINGLE POINT ENERGY      -572.469366620112
                    ***********************HURRAY********************
FINAL SINGLE POINT ENERGY      -572.469366786162

CARTESIAN COORDINATES (ANGSTROEM)
---------------------------------
  C     -4.525695    0.166431    0.036453
  C     -3.674154    1.262062    0.180545
  C     -2.301067    1.092306    0.151580
  C     -1.767821   -0.190161   -0.023401
  N     -0.384500   -0.487502   -0.071158
  N      0.384363    0.484914    0.062427
  C      1.767681    0.188789    0.010798
  C      2.619366    1.277424    0.199115
  C      3.995984    1.099967    0.170853
  C      4.525756   -0.165396   -0.049226
  C      3.675063   -1.254403   -0.240664
  C      2.301778   -1.085931   -0.211719
  C     -2.620290   -1.284866   -0.167566
  C     -3.996781   -1.106441   -0.137675
  H     -5.597737    0.309575    0.060366
  H     -4.089376    2.252015    0.315939
  H     -1.634625    1.934736    0.261376
  H      2.183755    2.252955    0.367844
  H      4.652614    1.946451    0.319300
  H      5.597907   -0.307678   -0.073543
  H      4.091162   -2.238099   -0.413761
  H      1.636029   -1.923161   -0.359042
  H     -2.185532   -2.266030   -0.302439
  H     -4.654083   -1.957957   -0.250002

 Multiplicity           Mult            ....    1
 Number of Electrons    NEL             ....   96
 Basis Dimension        Dim             ....  784

ORBITAL ENERGIES
----------------

  NO   OCC          E(Eh)            E(eV)
   0   2.0000     -14.392382      -391.6366
   1   2.0000     -14.391822      -391.6214
   2   2.0000     -10.231412      -278.4109
   3   2.0000     -10.231400      -278.4106
   4   2.0000     -10.205776      -277.7133
   5   2.0000     -10.205773      -277.7132
   6   2.0000     -10.204629      -277.6821
   7   2.0000     -10.204620      -277.6818
   8   2.0000     -10.204087      -277.6673
   9   2.0000     -10.204080      -277.6671
  10   2.0000     -10.203290      -277.6456
  11   2.0000     -10.203285      -277.6455
  12   2.0000     -10.202981      -277.6372
  13   2.0000     -10.202950      -277.6364
  14   2.0000      -1.047440       -28.5023
  15   2.0000      -0.883780       -24.0489
  16   2.0000      -0.866044       -23.5662
  17   2.0000      -0.806899       -21.9568
  18   2.0000      -0.761662       -20.7259
  19   2.0000      -0.760810       -20.7027
  20   2.0000      -0.751265       -20.4430
  21   2.0000      -0.687420       -18.7057
  22   2.0000      -0.627470       -17.0743
  23   2.0000      -0.621220       -16.9042
  24   2.0000      -0.606089       -16.4925
  25   2.0000      -0.573208       -15.5978
  26   2.0000      -0.539238       -14.6734
  27   2.0000      -0.511513       -13.9190
  28   2.0000      -0.489687       -13.3251
  29   2.0000      -0.480617       -13.0783
  30   2.0000      -0.459009       -12.4903
  31   2.0000      -0.447373       -12.1736
  32   2.0000      -0.442183       -12.0324
  33   2.0000      -0.436819       -11.8864
  34   2.0000      -0.433293       -11.7905
  35   2.0000      -0.430419       -11.7123
  36   2.0000      -0.404822       -11.0158
  37   2.0000      -0.387347       -10.5403
  38   2.0000      -0.368992       -10.0408
  39   2.0000      -0.367255        -9.9935
  40   2.0000      -0.361061        -9.8250
  41   2.0000      -0.351184        -9.5562
  42   2.0000      -0.350275        -9.5315
  43   2.0000      -0.284089        -7.7304
  44   2.0000      -0.265967        -7.2373
  45   2.0000      -0.265643        -7.2285
  46   2.0000      -0.238909        -6.5011
  47   2.0000      -0.237834        -6.4718
  48   0.0000      -0.087956        -2.3934
  49   0.0000      -0.017158        -0.4669
  50   0.0000      -0.013993        -0.3808
  51   0.0000      -0.002978        -0.0810
  52   0.0000       0.001644         0.0447

MULLIKEN ATOMIC CHARGES
-----------------------
   0 C :   -0.239486
   1 C :   -0.463199
   2 C :   -0.097331
   3 C :    0.830298
   4 N :   -0.301722
   5 N :   -0.295618
   6 C :    0.828766
   7 C :   -0.366499
   8 C :   -0.299567
   9 C :   -0.237284
  10 C :   -0.461353
  11 C :   -0.103984
  12 C :   -0.365862
  13 C :   -0.301458
  14 H :    0.197711
  15 H :    0.193544
  16 H :    0.166148
  17 H :    0.183028
  18 H :    0.195875
  19 H :    0.197841
  20 H :    0.193047
  21 H :    0.166532
  22 H :    0.184127
  23 H :    0.196447
Sum of atomic charges:   -0.0000000

LOEWDIN ATOMIC CHARGES
----------------------
   0 C :   -0.140107
   1 C :   -0.127450
   2 C :   -0.062235
   3 C :   -0.508134
   4 N :    0.153289
   5 N :    0.153036
   6 C :   -0.508153
   7 C :   -0.070827
   8 C :   -0.127562
   9 C :   -0.140139
  10 C :   -0.127467
  11 C :   -0.062046
  12 C :   -0.070785
  13 C :   -0.127600
  14 H :    0.167839
  15 H :    0.168957
  16 H :    0.190171
  17 H :    0.187666
  18 H :    0.168470
  19 H :    0.167848
  20 H :    0.168954
  21 H :    0.190145
  22 H :    0.187656
  23 H :    0.168473

  Mayer bond orders larger than 0.100000
B(  0-C ,  1-C ) :   1.2550 B(  0-C , 13-C ) :   1.2085 B(  0-C , 14-H ) :   0.9439
B(  1-C ,  2-C ) :   1.0751 B(  1-C , 15-H ) :   0.9587 B(  2-C ,  3-C ) :   1.1248
B(  2-C ,  4-N ) :  -0.2440 B(  2-C , 16-H ) :   1.0162 B(  3-C ,  4-N ) :   0.1091
B(  3-C ,  5-N ) :   0.4833 B(  3-C , 12-C ) :   0.9854 B(  4-N ,  6-C ) :   0.4871
B(  4-N ,  7-C ) :   0.1146 B(  5-N ,  6-C ) :   0.1153 B(  5-N , 11-C ) :  -0.2438
B(  5-N , 12-C ) :   0.1168 B(  6-C ,  7-C ) :   0.9878 B(  6-C , 11-C ) :   1.1212
B(  7-C ,  8-C ) :   1.1596 B(  7-C , 17-H ) :   0.9735 B(  8-C ,  9-C ) :   1.2067
B(  8-C , 18-H ) :   0.9665 B(  9-C , 10-C ) :   1.2517 B(  9-C , 19-H ) :   0.9441
B( 10-C , 11-C ) :   1.0797 B( 10-C , 20-H ) :   0.9603 B( 11-C , 21-H ) :   1.0153
B( 12-C , 13-C ) :   1.1581 B( 12-C , 22-H ) :   0.9710 B( 13-C , 23-H ) :   0.9650

-----------------------------------------------------------------------------
         ABSORPTION SPECTRUM VIA TRANSITION ELECTRIC DIPOLE MOMENTS
-----------------------------------------------------------------------------
State   Energy    Wavelength  fosc         T2        TX        TY        TZ
        (cm-1)      (nm)                 (au**2)    (au)      (au)      (au)
-----------------------------------------------------------------------------
   1   21066.6    474.7   0.000165755   0.00259  -0.05088   0.00135   0.00043
   2   29681.6    336.9   1.200507192  13.31536  -3.64629   0.13576   0.03871
   3   33204.4    301.2   0.069325694   0.68734  -0.54033  -0.62173  -0.09397
   4   33263.2    300.6   0.000020730   0.00021  -0.00248  -0.00272  -0.01384
   5   39065.3    256.0   0.000006162   0.00005   0.00063  -0.00162   0.00699
   6   40796.5    245.1   0.000193471   0.00156   0.01496   0.03611   0.00580
   7   41537.4    240.7   0.000059052   0.00047  -0.01720   0.01088  -0.00734
   8   43205.7    231.5   0.001894829   0.01444   0.01104   0.03336  -0.11491
   9   43683.0    228.9   0.296629350   2.23551  -1.15737  -0.93575  -0.14274
  10   44113.9    226.7   0.000070623   0.00053   0.00047   0.00372  -0.02265

FINAL SINGLE POINT ENERGY      -572.373380084564

DIPOLE MOMENT
-------------
                                X             Y             Z
Electronic contribution:      0.00013      -0.00342       0.00491
Nuclear contribution   :      0.00031       0.00448      -0.00920
                        -----------------------------------------
Total Dipole Moment    :      0.00044       0.00106      -0.00429
                        -----------------------------------------
Magnitude (a.u.)       :      0.00444
Magnitude (Debye)      :      0.01130

Rotational constants in cm-1:     0.091909     0.009761     0.008824
Rotational constants in MHz :  2755.374623   292.619583   264.546113

                             ****ORCA TERMINATED NORMALLY****
TOTAL RUN TIME: 0 days 0 hours 52 minutes 7 seconds 880 msec
