                         Program Version 5.0.2 -  RELEASE  -
|  1> ! b3lyp aug-cc-PVTZ RIJCOSX Opt
|  2> %maxcore 4000
|  3> %basis
|  4>  AuxJ "aug-cc-PVTZ/JK"
|  5>  AuxC "aug-cc-PVTZ/C"
|  6>  newGTO H "cc-PVTZ" end
|  7>  newAuxJGTO H "cc-PVTZ/JK" end
|  8>  newAuxCGTO H "cc-PVTZ/C" end
|  9> end
| 10> %cpcm
| 11>  SMD true
| 12>  SMDsolvent "ethanol"
| 13> end
| 14> %pal nprocs 4 end
| 15> * xyz 0 1
| 16> C         -5.31350       -0.67230        1.61530
| 17> C         -4.98860       -1.00350        0.15820
| 18> N         -4.31760        0.08600       -0.51830
| 19> C         -5.17770        1.01910       -1.21330
| 20> C         -5.38980        0.63450       -2.67850
| 21> C         -2.96420        0.22450       -0.49050
| 22> C         -2.30650        1.20300       -1.27640
| 23> C         -0.94740        1.34780       -1.25280
| 24> C         -0.13810        0.52510       -0.45370
| 25> C          1.27010        0.60840       -0.37510
| 26> C          1.97440       -0.24100        0.43220
| 27> C          3.41400       -0.15410        0.51230
| 28> N          4.13550        0.72660       -0.14420
| 29> C          5.42960        0.47250        0.20380
| 30> C          6.61000        1.09780       -0.19030
| 31> C          7.79230        0.61980        0.33000
| 32> C          7.82310       -0.45530        1.22370
| 33> C          6.66850       -1.09120        1.63080
| 34> C          5.47290       -0.61740        1.11380
| 35> N          4.17210       -0.98910        1.28630
| 36> C          1.27570       -1.24620        1.22220
| 37> O          1.80080       -2.05190        1.96550
| 38> O         -0.07990       -1.29110        1.12290
| 39> C         -0.78570       -0.45320        0.32350
| 40> C         -2.16100       -0.59690        0.31240
| 41> H         -5.82200       -1.51070        2.08350
| 42> H         -5.96020        0.20030        1.67140
| 43> H         -4.40520       -0.45840        2.17180
| 44> H         -5.91620       -1.21230       -0.38130
| 45> H         -4.37230       -1.90330        0.10310
| 46> H         -4.76340        2.02720       -1.14250
| 47> H         -6.14280        1.03090       -0.70010
| 48> H         -5.84560       -0.35020       -2.74970
| 49> H         -4.44230        0.60850       -3.20990
| 50> H         -6.04430        1.35450       -3.16240
| 51> H         -2.87500        1.84980       -1.92280
| 52> H         -0.47230        2.10160       -1.86230
| 53> H          1.80920        1.34470       -0.95160
| 54> H          6.58540        1.92670       -0.87970
| 55> H          8.72530        1.08330        0.04380
| 56> H          8.77620       -0.79370        1.60290
| 57> H          6.69150       -1.92120        2.32110
| 58> H          3.77900       -1.72240        1.86020
| 59> H         -2.57410       -1.35710        0.95190
| 60> *
| 61>
| 62>
| 63> $new_job
| 64> ! b3lyp aug-cc-PVTZ RIJCOSX SP
| 65> %maxcore 4000
| 66> %basis
| 67>  AuxJ "aug-cc-PVTZ/JK"
| 68>  AuxC "aug-cc-PVTZ/C"
| 69>  newGTO H "cc-PVTZ" end
| 70>  newAuxJGTO H "cc-PVTZ/JK" end
| 71>  newAuxCGTO H "cc-PVTZ/C" end
| 72> end
| 73> %cpcm
| 74>  SMD true
| 75>  SMDsolvent "ethanol"
| 76> end
| 77> %pal nprocs 4 end
| 78> %tddft
| 79>  nroots 10
| 80>  maxdim 7
| 81> end
| 82> * xyzfile 0 1
| 83>
| 84>                          ****END OF INPUT****
 Total Charge           Charge          ....    0
 Multiplicity           Mult            ....    1
 Number of Electrons    NEL             ....  176
FINAL SINGLE POINT ENERGY     -1088.082900200068
FINAL SINGLE POINT ENERGY     -1088.085762239952
FINAL SINGLE POINT ENERGY     -1088.086242811521
FINAL SINGLE POINT ENERGY     -1088.086333244862
FINAL SINGLE POINT ENERGY     -1088.086335102455
FINAL SINGLE POINT ENERGY     -1088.086353296472
                    ***********************HURRAY********************
FINAL SINGLE POINT ENERGY     -1088.086352508851

CARTESIAN COORDINATES (ANGSTROEM)
---------------------------------
  C     -5.415079   -0.698383    1.598456
  C     -5.013463   -1.016920    0.160780
  N     -4.325537    0.085772   -0.518374
  C     -5.191308    1.014130   -1.254245
  C     -5.398574    0.632336   -2.717215
  C     -2.977480    0.233392   -0.468204
  C     -2.313891    1.248732   -1.228800
  C     -0.954012    1.391476   -1.192229
  C     -0.142856    0.545389   -0.403502
  C      1.256346    0.619644   -0.320874
  C      1.987294   -0.235311    0.471333
  C      3.440585   -0.144866    0.526670
  N      4.167622    0.715950   -0.168346
  C      5.477826    0.454853    0.178825
  C      6.663382    1.058285   -0.250214
  C      7.858871    0.586994    0.271991
  C      7.889046   -0.464487    1.205185
  C      6.722791   -1.077873    1.643137
  C      5.526626   -0.601287    1.115560
  N      4.213332   -0.957175    1.312403
  C      1.294068   -1.234878    1.249120
  O      1.795812   -2.058539    2.004034
  O     -0.076822   -1.284603    1.144097
  C     -0.807074   -0.441839    0.346828
  C     -2.171559   -0.611350    0.333448
  H     -5.943695   -1.550462    2.030888
  H     -6.081230    0.165473    1.636264
  H     -4.544844   -0.486966    2.221096
  H     -5.903959   -1.245025   -0.425426
  H     -4.389650   -1.908851    0.124529
  H     -4.793584    2.024387   -1.173295
  H     -6.151845    1.024631   -0.738943
  H     -5.843092   -0.360718   -2.803912
  H     -4.457489    0.634843   -3.268593
  H     -6.073725    1.346958   -3.192663
  H     -2.884142    1.907483   -1.863474
  H     -0.479375    2.162110   -1.786517
  H      1.776101    1.371660   -0.900127
  H      6.644069    1.868742   -0.967836
  H      8.791847    1.037365   -0.041992
  H      8.842694   -0.802465    1.589544
  H      6.744442   -1.887305    2.360918
  H      3.836908   -1.678329    1.911328
  H     -2.595479   -1.382874    0.955547

 Multiplicity           Mult            ....    1
 Number of Electrons    NEL             ....  176
 Basis Dimension        Dim             .... 1416

ORBITAL ENERGIES
----------------

  NO   OCC          E(Eh)            E(eV)
   0   2.0000     -19.200830      -522.4811
   1   2.0000     -19.120223      -520.2877
   2   2.0000     -14.360837      -390.7782
   3   2.0000     -14.348114      -390.4320
   4   2.0000     -14.300559      -389.1380
   5   2.0000     -10.315946      -280.7112
   6   2.0000     -10.254969      -279.0519
   7   2.0000     -10.249176      -278.8943
   8   2.0000     -10.236123      -278.5391
   9   2.0000     -10.208130      -277.7773
  10   2.0000     -10.206724      -277.7391
  11   2.0000     -10.200331      -277.5651
  12   2.0000     -10.200275      -277.5636
  13   2.0000     -10.200113      -277.5592
  14   2.0000     -10.195956      -277.4461
  15   2.0000     -10.188055      -277.2311
  16   2.0000     -10.187468      -277.2151
  17   2.0000     -10.175763      -276.8966
  18   2.0000     -10.175538      -276.8905
  19   2.0000     -10.174519      -276.8627
  20   2.0000     -10.170944      -276.7655
  21   2.0000     -10.170261      -276.7469
  22   2.0000     -10.168497      -276.6989
  23   2.0000     -10.155842      -276.3545
  24   2.0000     -10.155819      -276.3539
  25   2.0000      -1.126170       -30.6446
  26   2.0000      -1.037292       -28.2261
  27   2.0000      -1.016991       -27.6737
  28   2.0000      -0.960791       -26.1445
  29   2.0000      -0.877600       -23.8807
  30   2.0000      -0.868955       -23.6455
  31   2.0000      -0.849574       -23.1181
  32   2.0000      -0.827473       -22.5167
  33   2.0000      -0.774454       -21.0740
  34   2.0000      -0.773616       -21.0512
  35   2.0000      -0.759478       -20.6664
  36   2.0000      -0.743308       -20.2264
  37   2.0000      -0.737505       -20.0685
  38   2.0000      -0.714634       -19.4462
  39   2.0000      -0.671037       -18.2598
  40   2.0000      -0.658621       -17.9220
  41   2.0000      -0.641513       -17.4565
  42   2.0000      -0.627308       -17.0699
  43   2.0000      -0.621936       -16.9237
  44   2.0000      -0.613630       -16.6977
  45   2.0000      -0.599853       -16.3228
  46   2.0000      -0.588826       -16.0228
  47   2.0000      -0.549232       -14.9454
  48   2.0000      -0.540795       -14.7158
  49   2.0000      -0.521046       -14.1784
  50   2.0000      -0.516625       -14.0581
  51   2.0000      -0.508935       -13.8488
  52   2.0000      -0.486626       -13.2418
  53   2.0000      -0.485432       -13.2093
  54   2.0000      -0.479129       -13.0378
  55   2.0000      -0.467401       -12.7186
  56   2.0000      -0.454197       -12.3593
  57   2.0000      -0.450606       -12.2616
  58   2.0000      -0.448977       -12.2173
  59   2.0000      -0.441426       -12.0118
  60   2.0000      -0.439031       -11.9466
  61   2.0000      -0.432615       -11.7721
  62   2.0000      -0.430179       -11.7058
  63   2.0000      -0.426714       -11.6115
  64   2.0000      -0.422213       -11.4890
  65   2.0000      -0.416436       -11.3318
  66   2.0000      -0.402195       -10.9443
  67   2.0000      -0.392980       -10.6935
  68   2.0000      -0.387422       -10.5423
  69   2.0000      -0.381104       -10.3704
  70   2.0000      -0.369808       -10.0630
  71   2.0000      -0.365095        -9.9347
  72   2.0000      -0.364266        -9.9122
  73   2.0000      -0.361645        -9.8409
  74   2.0000      -0.354592        -9.6489
  75   2.0000      -0.350525        -9.5383
  76   2.0000      -0.345660        -9.4059
  77   2.0000      -0.344938        -9.3862
  78   2.0000      -0.335729        -9.1357
  79   2.0000      -0.329549        -8.9675
  80   2.0000      -0.311664        -8.4808
  81   2.0000      -0.297856        -8.1051
  82   2.0000      -0.284116        -7.7312
  83   2.0000      -0.281309        -7.6548
  84   2.0000      -0.253767        -6.9053
  85   2.0000      -0.234268        -6.3748
  86   2.0000      -0.229599        -6.2477
  87   2.0000      -0.194133        -5.2826
  88   0.0000      -0.075765        -2.0617
  89   0.0000      -0.027187        -0.7398
  90   0.0000      -0.012597        -0.3428
  91   0.0000       0.000241         0.0066
  92   0.0000       0.001158         0.0315

MULLIKEN ATOMIC CHARGES
-----------------------
   0 C :   -0.563987
   1 C :   -0.320919
   2 N :    0.273982
   3 C :   -0.314688
   4 C :   -0.572743
   5 C :    0.808282
   6 C :   -0.545256
   7 C :   -1.115502
   8 C :    1.549888
   9 C :   -1.002721
  10 C :    1.847299
  11 C :   -0.453970
  12 N :   -1.012150
  13 C :    1.632838
  14 C :   -0.829446
  15 C :   -0.373354
  16 C :   -0.324465
  17 C :   -0.786274
  18 C :    0.515518
  19 N :   -0.068180
  20 C :    0.470920
  21 O :   -1.107984
  22 O :   -0.638992
  23 C :    0.869898
  24 C :   -0.834315
  25 H :    0.160746
  26 H :    0.160030
  27 H :    0.163530
  28 H :    0.193958
  29 H :    0.156900
  30 H :    0.162502
  31 H :    0.192272
  32 H :    0.162830
  33 H :    0.167614
  34 H :    0.159221
  35 H :    0.116688
  36 H :    0.097292
  37 H :    0.048003
  38 H :    0.176852
  39 H :    0.193611
  40 H :    0.195747
  41 H :    0.189088
  42 H :    0.093695
  43 H :    0.105742
Sum of atomic charges:    0.0000000

LOEWDIN ATOMIC CHARGES
----------------------
   0 C :   -0.066732
   1 C :   -0.386181
   2 N :   -0.054623
   3 C :   -0.388308
   4 C :   -0.067787
   5 C :   -0.439852
   6 C :   -0.028784
   7 C :   -0.015564
   8 C :   -0.297073
   9 C :    0.079264
  10 C :   -0.203497
  11 C :   -0.517886
  12 N :    0.361118
  13 C :   -0.465456
  14 C :   -0.039384
  15 C :   -0.152711
  16 C :   -0.151462
  17 C :   -0.021363
  18 C :   -0.398890
  19 N :    0.421188
  20 C :   -0.849913
  21 O :    0.387901
  22 O :    0.607907
  23 C :   -0.468712
  24 C :    0.058131
  25 H :    0.101427
  26 H :    0.115385
  27 H :    0.118365
  28 H :    0.189932
  29 H :    0.186597
  30 H :    0.185323
  31 H :    0.189997
  32 H :    0.115329
  33 H :    0.118537
  34 H :    0.101344
  35 H :    0.195991
  36 H :    0.194899
  37 H :    0.224806
  38 H :    0.176935
  39 H :    0.166583
  40 H :    0.166829
  41 H :    0.176726
  42 H :    0.163590
  43 H :    0.210075

  Mayer bond orders larger than 0.100000
B(  0-C ,  1-C ) :   0.7881 B(  0-C , 25-H ) :   0.9907 B(  0-C , 26-H ) :   0.9864
B(  0-C , 27-H ) :   0.9878 B(  1-C ,  2-N ) :   0.8949 B(  1-C , 28-H ) :   0.9804
B(  1-C , 29-H ) :   0.9904 B(  2-N ,  3-C ) :   0.9543 B(  2-N ,  5-C ) :   0.4668
B(  2-N ,  6-C ) :  -0.1914 B(  2-N , 23-C ) :   0.1399 B(  2-N , 24-C ) :  -0.2165
B(  3-C ,  4-C ) :   0.7768 B(  3-C , 30-H ) :   0.9906 B(  3-C , 31-H ) :   0.9740
B(  4-C ,  5-C ) :   0.1430 B(  4-C ,  6-C ) :  -0.1055 B(  4-C , 32-H ) :   0.9845
B(  4-C , 33-H ) :   0.9857 B(  4-C , 34-H ) :   0.9925 B(  5-C ,  6-C ) :   0.7929
B(  5-C ,  7-C ) :  -0.1123 B(  5-C ,  8-C ) :  -0.1174 B(  5-C ,  9-C ) :   0.1197
B(  5-C , 24-C ) :   0.5888 B(  6-C ,  7-C ) :   1.2393 B(  6-C ,  8-C ) :   0.1536
B(  6-C ,  9-C ) :   0.1027 B(  6-C , 35-H ) :   1.0578 B(  7-C ,  9-C ) :   0.2684
B(  7-C , 23-C ) :  -0.1473 B(  7-C , 36-H ) :   1.1740 B(  8-C ,  9-C ) :   0.5638
B(  8-C , 10-C ) :  -0.1038 B(  8-C , 11-C ) :   0.1967 B(  8-C , 12-N ) :   0.1981
B(  8-C , 20-C ) :  -0.3022 B(  8-C , 21-O ) :  -0.1667 B(  8-C , 23-C ) :   1.0331
B(  8-C , 24-C ) :  -0.1093 B(  8-C , 36-H ) :  -0.1415 B(  9-C , 10-C ) :   0.7570
B(  9-C , 12-N ) :  -0.4322 B(  9-C , 20-C ) :  -0.1350 B(  9-C , 23-C ) :   0.2719
B(  9-C , 24-C ) :   0.1306 B(  9-C , 37-H ) :   1.2694 B( 10-C , 11-C ) :  -0.4122
B( 10-C , 14-C ) :  -0.1136 B( 10-C , 18-C ) :   0.1508 B( 10-C , 20-C ) :   0.5774
B( 10-C , 21-O ) :  -0.2066 B( 10-C , 22-O ) :   0.1071 B( 10-C , 23-C ) :  -0.2195
B( 10-C , 37-H ) :  -0.1961 B( 11-C , 12-N ) :   1.0431 B( 11-C , 13-C ) :  -0.1236
B( 11-C , 14-C ) :   0.1814 B( 11-C , 15-C ) :   0.1167 B( 11-C , 17-C ) :   0.1616
B( 11-C , 19-N ) :   0.6559 B( 11-C , 20-C ) :   0.1870 B( 11-C , 21-O ) :   0.3661
B( 11-C , 23-C ) :  -0.1044 B( 12-N , 14-C ) :   0.2646 B( 12-N , 18-C ) :   0.1605
B( 13-C , 14-C ) :   0.2092 B( 13-C , 15-C ) :  -0.1931 B( 13-C , 16-C ) :  -0.1151
B( 13-C , 17-C ) :  -0.1027 B( 13-C , 18-C ) :   0.9616 B( 14-C , 15-C ) :   1.3009
B( 14-C , 16-C ) :   0.1304 B( 14-C , 18-C ) :   0.1529 B( 14-C , 38-H ) :   1.0026
B( 15-C , 16-C ) :   1.2208 B( 15-C , 17-C ) :   0.1053 B( 15-C , 39-H ) :   0.9682
B( 16-C , 17-C ) :   1.2876 B( 16-C , 18-C ) :  -0.1737 B( 16-C , 40-H ) :   0.9637
B( 17-C , 18-C ) :   0.7287 B( 17-C , 19-N ) :  -0.1182 B( 17-C , 41-H ) :   0.9751
B( 18-C , 19-N ) :   0.7423 B( 19-N , 42-H ) :   1.1290 B( 20-C , 21-O ) :   0.7886
B( 20-C , 22-O ) :   0.9102 B( 20-C , 23-C ) :   0.4313 B( 21-O , 24-C ) :   0.1601
B( 22-O , 24-C ) :   0.4189 B( 23-C , 24-C ) :   0.4515 B( 24-C , 43-H ) :   1.1396

-----------------------------------------------------------------------------
         ABSORPTION SPECTRUM VIA TRANSITION ELECTRIC DIPOLE MOMENTS
-----------------------------------------------------------------------------
State   Energy    Wavelength  fosc         T2        TX        TY        TZ
        (cm-1)      (nm)                 (au**2)    (au)      (au)      (au)
-----------------------------------------------------------------------------
   1   24332.0    411.0   1.476423410  19.97602  -4.37720   0.41478  -0.80254
   2   30212.9    331.0   0.043613838   0.47523   0.59930  -0.21764   0.26212
   3   31735.4    315.1   0.003211744   0.03332   0.08889   0.13553  -0.08395
   4   32908.4    303.9   0.142681180   1.42737   1.03431   0.51436  -0.30495
   5   33848.5    295.4   0.287406442   2.79532  -1.64187  -0.29810   0.10354
   6   35878.4    278.7   0.025156405   0.23083  -0.23589   0.33835  -0.24638
   7   37771.9    264.7   0.007191116   0.06268   0.02482  -0.24896   0.00878
   8   39097.4    255.8   0.002067983   0.01741  -0.06759   0.10157   0.05028
   9   39209.2    255.0   0.093106658   0.78175   0.87608  -0.07327   0.09415
  10   39291.1    254.5   0.060177235   0.50421   0.67030   0.23429  -0.00418

FINAL SINGLE POINT ENERGY     -1087.975487936159

DIPOLE MOMENT
-------------
                                X             Y             Z
Electronic contribution:     31.78488      -3.40316       6.66481
Nuclear contribution   :    -36.67065       4.10467      -7.76555
                        -----------------------------------------
Total Dipole Moment    :     -4.88577       0.70150      -1.10075
                        -----------------------------------------
Magnitude (a.u.)       :      5.05712
Magnitude (Debye)      :     12.85419

Rotational constants in cm-1:     0.026211     0.002634     0.002424
Rotational constants in MHz :   785.780516    78.969317    72.680053

                             ****ORCA TERMINATED NORMALLY****
TOTAL RUN TIME: 0 days 4 hours 55 minutes 42 seconds 623 msec
