                         Program Version 5.0.2 -  RELEASE  -
|  1> ! m062x defgrid3 aug-cc-PVTZ RIJCOSX Opt
|  2> %maxcore 4000
|  3> %basis
|  4>  AuxJ "aug-cc-PVTZ/JK"
|  5>  AuxC "aug-cc-PVTZ/C"
|  6>  newGTO H "cc-PVTZ" end
|  7>  newAuxJGTO H "cc-PVTZ/JK" end
|  8>  newAuxCGTO H "cc-PVTZ/C" end
|  9> end
| 10> %cpcm
| 11>  SMD true
| 12>  SMDsolvent "ethanol"
| 13> end
| 14> %pal nprocs 4 end
| 15> * xyz 0 1
| 16> C         -5.31350       -0.67230        1.61530
| 17> C         -4.98860       -1.00350        0.15820
| 18> N         -4.31760        0.08600       -0.51830
| 19> C         -5.17770        1.01910       -1.21330
| 20> C         -5.38980        0.63450       -2.67850
| 21> C         -2.96420        0.22450       -0.49050
| 22> C         -2.30650        1.20300       -1.27640
| 23> C         -0.94740        1.34780       -1.25280
| 24> C         -0.13810        0.52510       -0.45370
| 25> C          1.27010        0.60840       -0.37510
| 26> C          1.97440       -0.24100        0.43220
| 27> C          3.41400       -0.15410        0.51230
| 28> N          4.13550        0.72660       -0.14420
| 29> C          5.42960        0.47250        0.20380
| 30> C          6.61000        1.09780       -0.19030
| 31> C          7.79230        0.61980        0.33000
| 32> C          7.82310       -0.45530        1.22370
| 33> C          6.66850       -1.09120        1.63080
| 34> C          5.47290       -0.61740        1.11380
| 35> N          4.17210       -0.98910        1.28630
| 36> C          1.27570       -1.24620        1.22220
| 37> O          1.80080       -2.05190        1.96550
| 38> O         -0.07990       -1.29110        1.12290
| 39> C         -0.78570       -0.45320        0.32350
| 40> C         -2.16100       -0.59690        0.31240
| 41> H         -5.82200       -1.51070        2.08350
| 42> H         -5.96020        0.20030        1.67140
| 43> H         -4.40520       -0.45840        2.17180
| 44> H         -5.91620       -1.21230       -0.38130
| 45> H         -4.37230       -1.90330        0.10310
| 46> H         -4.76340        2.02720       -1.14250
| 47> H         -6.14280        1.03090       -0.70010
| 48> H         -5.84560       -0.35020       -2.74970
| 49> H         -4.44230        0.60850       -3.20990
| 50> H         -6.04430        1.35450       -3.16240
| 51> H         -2.87500        1.84980       -1.92280
| 52> H         -0.47230        2.10160       -1.86230
| 53> H          1.80920        1.34470       -0.95160
| 54> H          6.58540        1.92670       -0.87970
| 55> H          8.72530        1.08330        0.04380
| 56> H          8.77620       -0.79370        1.60290
| 57> H          6.69150       -1.92120        2.32110
| 58> H          3.77900       -1.72240        1.86020
| 59> H         -2.57410       -1.35710        0.95190
| 60> *
| 61>
| 62>
| 63> $new_job
| 64> ! m062x defgrid3 aug-cc-PVTZ RIJCOSX SP
| 65> %maxcore 4000
| 66> %basis
| 67>  AuxJ "aug-cc-PVTZ/JK"
| 68>  AuxC "aug-cc-PVTZ/C"
| 69>  newGTO H "cc-PVTZ" end
| 70>  newAuxJGTO H "cc-PVTZ/JK" end
| 71>  newAuxCGTO H "cc-PVTZ/C" end
| 72> end
| 73> %cpcm
| 74>  SMD true
| 75>  SMDsolvent "ethanol"
| 76> end
| 77> %pal nprocs 4 end
| 78> %tddft
| 79>  nroots 10
| 80>  maxdim 7
| 81> end
| 82> * xyzfile 0 1
| 83>
| 84>                          ****END OF INPUT****
 Total Charge           Charge          ....    0
 Multiplicity           Mult            ....    1
 Number of Electrons    NEL             ....  176
FINAL SINGLE POINT ENERGY     -1088.304256564020
FINAL SINGLE POINT ENERGY     -1088.305930869097
FINAL SINGLE POINT ENERGY     -1088.306301985928
FINAL SINGLE POINT ENERGY     -1088.306359657840
FINAL SINGLE POINT ENERGY     -1088.306360766813
FINAL SINGLE POINT ENERGY     -1088.306372143621
                    ***********************HURRAY********************
FINAL SINGLE POINT ENERGY     -1088.306375529941

CARTESIAN COORDINATES (ANGSTROEM)
---------------------------------
  C     -5.327542   -0.672245    1.614693
  C     -5.000049   -1.008367    0.167718
  N     -4.319513    0.082274   -0.522228
  C     -5.179733    1.014465   -1.245149
  C     -5.362426    0.630378   -2.705267
  C     -2.976856    0.222750   -0.481192
  C     -2.318037    1.230525   -1.251024
  C     -0.960128    1.369088   -1.215380
  C     -0.155729    0.529192   -0.421276
  C      1.247872    0.604926   -0.335851
  C      1.964993   -0.242603    0.457139
  C      3.419236   -0.149668    0.524039
  N      4.134494    0.727473   -0.148076
  C      5.443813    0.466824    0.198710
  C      6.625586    1.086449   -0.213401
  C      7.817719    0.610391    0.299592
  C      7.850684   -0.462342    1.207064
  C      6.691339   -1.089121    1.627801
  C      5.495530   -0.604196    1.108425
  N      4.185916   -0.971940    1.293993
  C      1.267118   -1.242131    1.235344
  O      1.772905   -2.055214    1.986450
  O     -0.089134   -1.290886    1.125874
  C     -0.813943   -0.452746    0.329548
  C     -2.177760   -0.622022    0.319971
  H     -5.849700   -1.505069    2.086401
  H     -5.970891    0.207342    1.664364
  H     -4.421598   -0.466199    2.185409
  H     -5.917767   -1.210157   -0.384692
  H     -4.395777   -1.912176    0.102310
  H     -4.784494    2.024687   -1.152084
  H     -6.143616    1.013894   -0.736056
  H     -5.793224   -0.368640   -2.785542
  H     -4.408824    0.634920   -3.234097
  H     -6.033910    1.333459   -3.198904
  H     -2.891037    1.883724   -1.890037
  H     -0.479545    2.133278   -1.813609
  H      1.771942    1.354994   -0.916191
  H      6.601192    1.911874   -0.913106
  H      8.749150    1.071425   -0.001631
  H      8.805023   -0.805084    1.584345
  H      6.711849   -1.915173    2.325780
  H      3.815944   -1.708081    1.878893
  H     -2.601174   -1.390172    0.948132

 Multiplicity           Mult            ....    1
 Number of Electrons    NEL             ....  176
 Basis Dimension        Dim             .... 1416

ORBITAL ENERGIES
----------------

  NO   OCC          E(Eh)            E(eV)
   0   2.0000     -19.704051      -536.1745
   1   2.0000     -19.622460      -533.9543
   2   2.0000     -14.795731      -402.6123
   3   2.0000     -14.777325      -402.1115
   4   2.0000     -14.736768      -401.0078
   5   2.0000     -10.693194      -290.9766
   6   2.0000     -10.627565      -289.1907
   7   2.0000     -10.622479      -289.0523
   8   2.0000     -10.606869      -288.6276
   9   2.0000     -10.580449      -287.9087
  10   2.0000     -10.577590      -287.8309
  11   2.0000     -10.568749      -287.5903
  12   2.0000     -10.566927      -287.5407
  13   2.0000     -10.566669      -287.5337
  14   2.0000     -10.565253      -287.4951
  15   2.0000     -10.557954      -287.2965
  16   2.0000     -10.554251      -287.1958
  17   2.0000     -10.544906      -286.9415
  18   2.0000     -10.543471      -286.9024
  19   2.0000     -10.542289      -286.8703
  20   2.0000     -10.540329      -286.8169
  21   2.0000     -10.539039      -286.7818
  22   2.0000     -10.536928      -286.7244
  23   2.0000     -10.521131      -286.2945
  24   2.0000     -10.521121      -286.2942
  25   2.0000      -1.264847       -34.4182
  26   2.0000      -1.167225       -31.7618
  27   2.0000      -1.138362       -30.9764
  28   2.0000      -1.077419       -29.3181
  29   2.0000      -0.987886       -26.8818
  30   2.0000      -0.979106       -26.6428
  31   2.0000      -0.958645       -26.0861
  32   2.0000      -0.934370       -25.4255
  33   2.0000      -0.877358       -23.8741
  34   2.0000      -0.874917       -23.8077
  35   2.0000      -0.860999       -23.4290
  36   2.0000      -0.842964       -22.9382
  37   2.0000      -0.836313       -22.7572
  38   2.0000      -0.810231       -22.0475
  39   2.0000      -0.763111       -20.7653
  40   2.0000      -0.751030       -20.4366
  41   2.0000      -0.732355       -19.9284
  42   2.0000      -0.715686       -19.4748
  43   2.0000      -0.710440       -19.3321
  44   2.0000      -0.700537       -19.0626
  45   2.0000      -0.686056       -18.6685
  46   2.0000      -0.673388       -18.3238
  47   2.0000      -0.630436       -17.1550
  48   2.0000      -0.620193       -16.8763
  49   2.0000      -0.598875       -16.2962
  50   2.0000      -0.597491       -16.2586
  51   2.0000      -0.585229       -15.9249
  52   2.0000      -0.578685       -15.7468
  53   2.0000      -0.562759       -15.3135
  54   2.0000      -0.558443       -15.1960
  55   2.0000      -0.540853       -14.7174
  56   2.0000      -0.534407       -14.5420
  57   2.0000      -0.530610       -14.4386
  58   2.0000      -0.527175       -14.3452
  59   2.0000      -0.517267       -14.0756
  60   2.0000      -0.509468       -13.8633
  61   2.0000      -0.503157       -13.6916
  62   2.0000      -0.500725       -13.6254
  63   2.0000      -0.497718       -13.5436
  64   2.0000      -0.489029       -13.3072
  65   2.0000      -0.484285       -13.1781
  66   2.0000      -0.473477       -12.8840
  67   2.0000      -0.466359       -12.6903
  68   2.0000      -0.454425       -12.3655
  69   2.0000      -0.444608       -12.0984
  70   2.0000      -0.439102       -11.9486
  71   2.0000      -0.433489       -11.7958
  72   2.0000      -0.429055       -11.6752
  73   2.0000      -0.424642       -11.5551
  74   2.0000      -0.420124       -11.4322
  75   2.0000      -0.417692       -11.3660
  76   2.0000      -0.411508       -11.1977
  77   2.0000      -0.407679       -11.0935
  78   2.0000      -0.398647       -10.8477
  79   2.0000      -0.393422       -10.7055
  80   2.0000      -0.378121       -10.2892
  81   2.0000      -0.374889       -10.2013
  82   2.0000      -0.354894        -9.6572
  83   2.0000      -0.341518        -9.2932
  84   2.0000      -0.310528        -8.4499
  85   2.0000      -0.287448        -7.8218
  86   2.0000      -0.282643        -7.6911
  87   2.0000      -0.239356        -6.5132
  88   0.0000      -0.049174        -1.3381
  89   0.0000       0.003342         0.0909
  90   0.0000       0.003889         0.1058
  91   0.0000       0.006741         0.1834
  92   0.0000       0.011083         0.3016

MULLIKEN ATOMIC CHARGES
-----------------------
   0 C :   -0.746400
   1 C :   -0.492958
   2 N :    0.238419
   3 C :   -0.513965
   4 C :   -0.738340
   5 C :    1.799446
   6 C :   -0.587033
   7 C :   -1.505478
   8 C :    2.013944
   9 C :   -1.586854
  10 C :    2.441730
  11 C :   -0.469472
  12 N :   -1.224000
  13 C :    2.097695
  14 C :   -0.995197
  15 C :   -0.377222
  16 C :   -0.352766
  17 C :   -0.889129
  18 C :    0.940345
  19 N :   -0.231045
  20 C :    0.343431
  21 O :   -1.299811
  22 O :   -0.723767
  23 C :    0.565925
  24 C :   -0.724610
  25 H :    0.181996
  26 H :    0.206075
  27 H :    0.228089
  28 H :    0.297216
  29 H :    0.212628
  30 H :    0.234768
  31 H :    0.284921
  32 H :    0.207659
  33 H :    0.231155
  34 H :    0.185213
  35 H :    0.055838
  36 H :    0.017654
  37 H :    0.026480
  38 H :    0.100338
  39 H :    0.117513
  40 H :    0.116877
  41 H :    0.103740
  42 H :    0.164070
  43 H :    0.044881
Sum of atomic charges:   -0.0000000

LOEWDIN ATOMIC CHARGES
----------------------
   0 C :   -0.063636
   1 C :   -0.396900
   2 N :   -0.077859
   3 C :   -0.398833
   4 C :   -0.064919
   5 C :   -0.457297
   6 C :   -0.028717
   7 C :   -0.016382
   8 C :   -0.298770
   9 C :    0.082491
  10 C :   -0.198960
  11 C :   -0.530382
  12 N :    0.367158
  13 C :   -0.471809
  14 C :   -0.036806
  15 C :   -0.151329
  16 C :   -0.150484
  17 C :   -0.018432
  18 C :   -0.406624
  19 N :    0.423143
  20 C :   -0.862679
  21 O :    0.400893
  22 O :    0.615327
  23 C :   -0.478946
  24 C :    0.059423
  25 H :    0.101097
  26 H :    0.119026
  27 H :    0.123831
  28 H :    0.193162
  29 H :    0.189727
  30 H :    0.188384
  31 H :    0.193286
  32 H :    0.119105
  33 H :    0.123233
  34 H :    0.100961
  35 H :    0.199629
  36 H :    0.198131
  37 H :    0.230822
  38 H :    0.179655
  39 H :    0.168395
  40 H :    0.168860
  41 H :    0.179284
  42 H :    0.169808
  43 H :    0.214936

  Mayer bond orders larger than 0.100000
B(  0-C ,  1-C ) :   0.6141 B(  0-C , 25-H ) :   0.9957 B(  0-C , 26-H ) :   0.9804
B(  0-C , 27-H ) :   0.9561 B(  1-C ,  2-N ) :   0.9547 B(  1-C ,  5-C ) :  -0.1068
B(  1-C , 24-C ) :   0.1053 B(  1-C , 28-H ) :   0.9228 B(  1-C , 29-H ) :   1.0257
B(  2-N ,  3-C ) :   1.0250 B(  2-N ,  5-C ) :   0.4711 B(  2-N ,  6-C ) :  -0.1273
B(  2-N , 24-C ) :  -0.2002 B(  3-C ,  4-C ) :   0.6097 B(  3-C ,  5-C ) :  -0.3104
B(  3-C ,  6-C ) :   0.2157 B(  3-C , 30-H ) :   1.0085 B(  3-C , 31-H ) :   0.9366
B(  4-C , 32-H ) :   0.9785 B(  4-C , 33-H ) :   0.9556 B(  4-C , 34-H ) :   0.9916
B(  5-C ,  6-C ) :   0.3928 B(  5-C ,  7-C ) :  -0.1906 B(  5-C ,  8-C ) :  -0.3344
B(  5-C , 22-O ) :  -0.2160 B(  5-C , 23-C ) :  -0.1335 B(  5-C , 24-C ) :   0.5717
B(  5-C , 35-H ) :  -0.2679 B(  5-C , 43-H ) :  -0.3352 B(  6-C ,  7-C ) :   1.6080
B(  6-C , 23-C ) :  -0.1537 B(  6-C , 24-C ) :  -0.4053 B(  6-C , 30-H ) :   0.1057
B(  6-C , 35-H ) :   1.2153 B(  6-C , 36-H ) :  -0.1284 B(  7-C ,  8-C ) :  -0.4178
B(  7-C ,  9-C ) :   0.2519 B(  7-C , 24-C ) :  -0.1721 B(  7-C , 36-H ) :   1.4011
B(  8-C ,  9-C ) :   0.6644 B(  8-C , 10-C ) :  -0.1513 B(  8-C , 12-N ) :   0.1687
B(  8-C , 20-C ) :  -0.3058 B(  8-C , 21-O ) :  -0.1877 B(  8-C , 22-O ) :  -0.1257
B(  8-C , 23-C ) :   0.9531 B(  8-C , 24-C ) :  -0.3822 B(  8-C , 36-H ) :  -0.3937
B(  9-C , 10-C ) :   0.5958 B(  9-C , 11-C ) :   0.2273 B(  9-C , 12-N ) :  -0.1882
B(  9-C , 23-C ) :   0.4913 B(  9-C , 24-C ) :   0.1445 B(  9-C , 37-H ) :   1.4882
B( 10-C , 11-C ) :  -0.2709 B( 10-C , 12-N ) :  -0.2497 B( 10-C , 13-C ) :   0.2119
B( 10-C , 14-C ) :  -0.1921 B( 10-C , 15-C ) :  -0.1208 B( 10-C , 18-C ) :   0.2049
B( 10-C , 19-N ) :  -0.1842 B( 10-C , 20-C ) :   0.4967 B( 10-C , 21-O ) :  -0.6216
B( 10-C , 23-C ) :  -0.4139 B( 10-C , 37-H ) :  -0.3880 B( 11-C , 12-N ) :   0.9583
B( 11-C , 13-C ) :  -0.2830 B( 11-C , 14-C ) :   0.3383 B( 11-C , 15-C ) :   0.1950
B( 11-C , 17-C ) :   0.2482 B( 11-C , 18-C ) :   0.1720 B( 11-C , 19-N ) :   0.7240
B( 11-C , 20-C ) :   0.3756 B( 11-C , 21-O ) :   0.5015 B( 12-N , 13-C ) :  -0.2562
B( 12-N , 14-C ) :   0.3776 B( 12-N , 18-C ) :   0.1917 B( 13-C , 14-C ) :  -0.2783
B( 13-C , 15-C ) :  -0.3530 B( 13-C , 16-C ) :  -0.2005 B( 13-C , 18-C ) :   0.8805
B( 13-C , 38-H ) :  -0.2829 B( 14-C , 15-C ) :   1.3955 B( 14-C , 18-C ) :   0.1893
B( 14-C , 19-N ) :  -0.1579 B( 14-C , 38-H ) :   1.1970 B( 15-C , 16-C ) :   1.0365
B( 15-C , 18-C ) :  -0.1263 B( 15-C , 39-H ) :   1.0940 B( 15-C , 40-H ) :  -0.1038
B( 16-C , 17-C ) :   1.3476 B( 16-C , 18-C ) :  -0.2011 B( 16-C , 39-H ) :  -0.1036
B( 16-C , 40-H ) :   1.0974 B( 17-C , 18-C ) :   0.1274 B( 17-C , 41-H ) :   1.1705
B( 18-C , 19-N ) :   0.5938 B( 18-C , 41-H ) :  -0.2320 B( 19-N , 21-O ) :  -0.1139
B( 19-N , 42-H ) :   1.1336 B( 20-C , 21-O ) :   0.8689 B( 20-C , 22-O ) :   1.2994
B( 20-C , 23-C ) :   0.3049 B( 21-O , 22-O ) :  -0.3156 B( 21-O , 23-C ) :   0.1928
B( 21-O , 24-C ) :   0.1310 B( 22-O , 23-C ) :   0.3473 B( 22-O , 24-C ) :   0.1309
B( 23-C , 24-C ) :   1.1463 B( 24-C , 43-H ) :   1.2836

-----------------------------------------------------------------------------
         ABSORPTION SPECTRUM VIA TRANSITION ELECTRIC DIPOLE MOMENTS
-----------------------------------------------------------------------------
State   Energy    Wavelength  fosc         T2        TX        TY        TZ
        (cm-1)      (nm)                 (au**2)    (au)      (au)      (au)
-----------------------------------------------------------------------------
   1   27052.5    369.7   1.581839237  19.25001  -4.28798   0.43271  -0.82221
   2   36456.4    274.3   0.082657562   0.74642   0.59773   0.52584  -0.33560
   3   37869.0    264.1   0.039724350   0.34534  -0.55246  -0.16616   0.11190
   4   39102.1    255.7   0.114953369   0.96783   0.91328  -0.24054   0.27547
   5   39754.4    251.5   0.006243479   0.05170   0.04480  -0.20471  -0.08826
   6   40464.4    247.1   0.234970207   1.91168  -1.27165  -0.46573   0.27870
   7   40953.0    244.2   0.096133051   0.77279  -0.51425  -0.58804   0.40318
   8   42463.7    235.5   0.006951538   0.05389   0.03032  -0.22970  -0.01459
   9   43093.4    232.1   0.013031750   0.09956  -0.27994  -0.13945   0.04178
  10   43828.8    228.2   0.000253490   0.00190   0.03231   0.00927  -0.02783

FINAL SINGLE POINT ENERGY     -1088.183114499760

DIPOLE MOMENT
-------------
                                X             Y             Z
Electronic contribution:     31.72655      -3.53060       6.56999
Nuclear contribution   :    -36.24618       4.17957      -7.63240
                        -----------------------------------------
Total Dipole Moment    :     -4.51963       0.64897      -1.06240
                        -----------------------------------------
Magnitude (a.u.)       :      4.68795
Magnitude (Debye)      :     11.91583

Rotational constants in cm-1:     0.026363     0.002662     0.002450
Rotational constants in MHz :   790.357418    79.793495    73.436026

                             ****ORCA TERMINATED NORMALLY****
TOTAL RUN TIME: 0 days 10 hours 34 minutes 56 seconds 287 msec
