                         Program Version 5.0.2 -  RELEASE  -
|  1> ! pbe0 d3bj aug-cc-PVTZ RIJCOSX Opt
|  2> %maxcore 4000
|  3> %basis
|  4>  AuxJ "aug-cc-PVTZ/JK"
|  5>  AuxC "aug-cc-PVTZ/C"
|  6>  newGTO H "cc-PVTZ" end
|  7>  newAuxJGTO H "cc-PVTZ/JK" end
|  8>  newAuxCGTO H "cc-PVTZ/C" end
|  9> end
| 10> %cpcm
| 11>  SMD true
| 12>  SMDsolvent "ethanol"
| 13> end
| 14> %pal nprocs 4 end
| 15> * xyz 0 1
| 16> C         -5.31350       -0.67230        1.61530
| 17> C         -4.98860       -1.00350        0.15820
| 18> N         -4.31760        0.08600       -0.51830
| 19> C         -5.17770        1.01910       -1.21330
| 20> C         -5.38980        0.63450       -2.67850
| 21> C         -2.96420        0.22450       -0.49050
| 22> C         -2.30650        1.20300       -1.27640
| 23> C         -0.94740        1.34780       -1.25280
| 24> C         -0.13810        0.52510       -0.45370
| 25> C          1.27010        0.60840       -0.37510
| 26> C          1.97440       -0.24100        0.43220
| 27> C          3.41400       -0.15410        0.51230
| 28> N          4.13550        0.72660       -0.14420
| 29> C          5.42960        0.47250        0.20380
| 30> C          6.61000        1.09780       -0.19030
| 31> C          7.79230        0.61980        0.33000
| 32> C          7.82310       -0.45530        1.22370
| 33> C          6.66850       -1.09120        1.63080
| 34> C          5.47290       -0.61740        1.11380
| 35> N          4.17210       -0.98910        1.28630
| 36> C          1.27570       -1.24620        1.22220
| 37> O          1.80080       -2.05190        1.96550
| 38> O         -0.07990       -1.29110        1.12290
| 39> C         -0.78570       -0.45320        0.32350
| 40> C         -2.16100       -0.59690        0.31240
| 41> H         -5.82200       -1.51070        2.08350
| 42> H         -5.96020        0.20030        1.67140
| 43> H         -4.40520       -0.45840        2.17180
| 44> H         -5.91620       -1.21230       -0.38130
| 45> H         -4.37230       -1.90330        0.10310
| 46> H         -4.76340        2.02720       -1.14250
| 47> H         -6.14280        1.03090       -0.70010
| 48> H         -5.84560       -0.35020       -2.74970
| 49> H         -4.44230        0.60850       -3.20990
| 50> H         -6.04430        1.35450       -3.16240
| 51> H         -2.87500        1.84980       -1.92280
| 52> H         -0.47230        2.10160       -1.86230
| 53> H          1.80920        1.34470       -0.95160
| 54> H          6.58540        1.92670       -0.87970
| 55> H          8.72530        1.08330        0.04380
| 56> H          8.77620       -0.79370        1.60290
| 57> H          6.69150       -1.92120        2.32110
| 58> H          3.77900       -1.72240        1.86020
| 59> H         -2.57410       -1.35710        0.95190
| 60> *
| 61>
| 62>
| 63> $new_job
| 64> ! b2plyp aug-cc-PVTZ RIJCOSX SP
| 65> %maxcore 4000
| 66> %basis
| 67>  AuxJ "aug-cc-PVTZ/JK"
| 68>  AuxC "aug-cc-PVTZ/C"
| 69>  newGTO H "cc-PVTZ" end
| 70>  newAuxJGTO H "cc-PVTZ/JK" end
| 71>  newAuxCGTO H "cc-PVTZ/C" end
| 72> end
| 73> %cpcm
| 74>  SMD true
| 75>  SMDsolvent "ethanol"
| 76> end
| 77> %pal nprocs 4 end
| 78> %tddft
| 79>  nroots 10
| 80>  maxdim 7
| 81> end
| 82> * xyzfile 0 1
| 83>
| 84>                          ****END OF INPUT****
 Total Charge           Charge          ....    0
 Multiplicity           Mult            ....    1
 Number of Electrons    NEL             ....  176
Dispersion correction           -0.050512418
FINAL SINGLE POINT ENERGY     -1087.520559859324
Dispersion correction            ... done
Dispersion correction           -0.050485993
FINAL SINGLE POINT ENERGY     -1087.522211036404
Dispersion correction            ... done
Dispersion correction           -0.050481570
FINAL SINGLE POINT ENERGY     -1087.522586941456
Dispersion correction            ... done
FINAL SINGLE POINT ENERGY     -1087.522617317687
FINAL SINGLE POINT ENERGY     -1087.522630148310
Dispersion correction            ... done
Dispersion correction           -0.050474457
FINAL SINGLE POINT ENERGY     -1087.522643632503
Dispersion correction            ... done
                    ***********************HURRAY********************
Dispersion correction           -0.050475151
FINAL SINGLE POINT ENERGY     -1087.522642050180

CARTESIAN COORDINATES (ANGSTROEM)
---------------------------------
  C     -5.351455   -0.694480    1.595443
  C     -4.981784   -1.013267    0.159140
  N     -4.308781    0.083345   -0.515844
  C     -5.168188    1.004067   -1.241455
  C     -5.359225    0.622375   -2.697063
  C     -2.969894    0.233947   -0.468232
  C     -2.316907    1.249315   -1.227615
  C     -0.960445    1.393885   -1.194053
  C     -0.150484    0.550080   -0.409872
  C      1.245311    0.626538   -0.331044
  C      1.969340   -0.228796    0.458194
  C      3.416077   -0.141812    0.515225
  N      4.142186    0.716494   -0.176291
  C      5.444900    0.453253    0.175671
  C      6.630693    1.053269   -0.246244
  C      7.818838    0.579850    0.281233
  C      7.842395   -0.469070    1.211806
  C      6.676702   -1.079911    1.643137
  C      5.487697   -0.601332    1.110425
  N      4.178484   -0.952497    1.299834
  C      1.277415   -1.225432    1.233179
  O      1.782295   -2.044916    1.983354
  O     -0.081223   -1.274225    1.130847
  C     -0.806064   -0.437529    0.340572
  C     -2.167355   -0.609068    0.329207
  H     -5.875191   -1.541642    2.043888
  H     -6.011254    0.174900    1.641950
  H     -4.465321   -0.483522    2.197326
  H     -5.882976   -1.236406   -0.415342
  H     -4.359569   -1.907875    0.106650
  H     -4.775034    2.017416   -1.153094
  H     -6.132027    1.008052   -0.728815
  H     -5.794821   -0.375628   -2.783006
  H     -4.410082    0.627954   -3.236517
  H     -6.033743    1.330176   -3.184127
  H     -2.894121    1.906342   -1.861072
  H     -0.485446    2.165897   -1.788625
  H      1.768566    1.379227   -0.909680
  H      6.616364    1.865168   -0.964177
  H      8.755531    1.029023   -0.027712
  H      8.794841   -0.808725    1.601199
  H      6.692737   -1.890497    2.361549
  H      3.792540   -1.671766    1.894890
  H     -2.591627   -1.382079    0.952361

 Multiplicity           Mult            ....    1
 Number of Electrons    NEL             ....  176
 Basis Dimension        Dim             .... 1416

ORBITAL ENERGIES
----------------

  NO   OCC          E(Eh)            E(eV)
   0   2.0000     -19.804973      -538.9207
   1   2.0000     -19.719399      -536.5921
   2   2.0000     -14.882545      -404.9746
   3   2.0000     -14.863614      -404.4595
   4   2.0000     -14.821827      -403.3224
   5   2.0000     -10.772736      -293.1411
   6   2.0000     -10.705754      -291.3184
   7   2.0000     -10.698951      -291.1333
   8   2.0000     -10.684685      -290.7451
   9   2.0000     -10.659921      -290.0712
  10   2.0000     -10.651501      -289.8421
  11   2.0000     -10.641289      -289.5642
  12   2.0000     -10.641173      -289.5610
  13   2.0000     -10.641011      -289.5566
  14   2.0000     -10.639207      -289.5075
  15   2.0000     -10.635506      -289.4068
  16   2.0000     -10.628694      -289.2215
  17   2.0000     -10.619128      -288.9612
  18   2.0000     -10.617137      -288.9070
  19   2.0000     -10.615496      -288.8623
  20   2.0000     -10.614485      -288.8348
  21   2.0000     -10.613511      -288.8083
  22   2.0000     -10.611562      -288.7553
  23   2.0000     -10.596694      -288.3507
  24   2.0000     -10.596686      -288.3505
  25   2.0000      -1.284926       -34.9646
  26   2.0000      -1.185009       -32.2457
  27   2.0000      -1.158489       -31.5241
  28   2.0000      -1.098778       -29.8993
  29   2.0000      -1.005451       -27.3597
  30   2.0000      -0.997869       -27.1534
  31   2.0000      -0.975444       -26.5432
  32   2.0000      -0.951476       -25.8910
  33   2.0000      -0.890970       -24.2445
  34   2.0000      -0.890111       -24.2212
  35   2.0000      -0.874119       -23.7860
  36   2.0000      -0.856796       -23.3146
  37   2.0000      -0.849579       -23.1182
  38   2.0000      -0.823741       -22.4151
  39   2.0000      -0.773014       -21.0348
  40   2.0000      -0.759732       -20.6734
  41   2.0000      -0.740313       -20.1449
  42   2.0000      -0.723151       -19.6779
  43   2.0000      -0.717494       -19.5240
  44   2.0000      -0.706769       -19.2322
  45   2.0000      -0.692592       -18.8464
  46   2.0000      -0.679739       -18.4966
  47   2.0000      -0.633949       -17.2506
  48   2.0000      -0.625064       -17.0088
  49   2.0000      -0.602674       -16.3996
  50   2.0000      -0.600010       -16.3271
  51   2.0000      -0.588268       -16.0076
  52   2.0000      -0.569563       -15.4986
  53   2.0000      -0.565192       -15.3796
  54   2.0000      -0.558794       -15.2056
  55   2.0000      -0.544678       -14.8214
  56   2.0000      -0.531962       -14.4754
  57   2.0000      -0.527901       -14.3649
  58   2.0000      -0.523276       -14.2391
  59   2.0000      -0.518347       -14.1049
  60   2.0000      -0.511765       -13.9258
  61   2.0000      -0.504583       -13.7304
  62   2.0000      -0.500632       -13.6229
  63   2.0000      -0.497645       -13.5416
  64   2.0000      -0.492735       -13.4080
  65   2.0000      -0.485315       -13.2061
  66   2.0000      -0.472856       -12.8671
  67   2.0000      -0.458451       -12.4751
  68   2.0000      -0.453840       -12.3496
  69   2.0000      -0.447409       -12.1746
  70   2.0000      -0.432724       -11.7750
  71   2.0000      -0.429344       -11.6830
  72   2.0000      -0.427740       -11.6394
  73   2.0000      -0.427075       -11.6213
  74   2.0000      -0.419923       -11.4267
  75   2.0000      -0.413269       -11.2456
  76   2.0000      -0.405889       -11.0448
  77   2.0000      -0.405480       -11.0337
  78   2.0000      -0.394662       -10.7393
  79   2.0000      -0.384114       -10.4523
  80   2.0000      -0.370279       -10.0758
  81   2.0000      -0.364649        -9.9226
  82   2.0000      -0.350892        -9.5483
  83   2.0000      -0.327807        -8.9201
  84   2.0000      -0.295485        -8.0406
  85   2.0000      -0.270021        -7.3477
  86   2.0000      -0.265330        -7.2200
  87   2.0000      -0.223719        -6.0877
  88   0.0000      -0.028541        -0.7766
  89   0.0000       0.021824         0.5939
  90   0.0000       0.024133         0.6567
  91   0.0000       0.026893         0.7318
  92   0.0000       0.029318         0.7978

MULLIKEN ATOMIC CHARGES
-----------------------
   0 C :   -0.646815
   1 C :   -0.428402
   2 N :    0.255627
   3 C :   -0.400314
   4 C :   -0.661083
   5 C :    0.893136
   6 C :   -0.442160
   7 C :   -1.267383
   8 C :    1.420254
   9 C :   -0.941246
  10 C :    2.121404
  11 C :   -0.578092
  12 N :   -1.060862
  13 C :    1.664873
  14 C :   -0.917848
  15 C :   -0.378373
  16 C :   -0.325104
  17 C :   -0.910180
  18 C :    0.548888
  19 N :   -0.023680
  20 C :    0.390585
  21 O :   -1.169722
  22 O :   -0.680045
  23 C :    0.915532
  24 C :   -0.897356
  25 H :    0.193968
  26 H :    0.190779
  27 H :    0.191520
  28 H :    0.227336
  29 H :    0.192161
  30 H :    0.202142
  31 H :    0.230404
  32 H :    0.192710
  33 H :    0.200758
  34 H :    0.186880
  35 H :    0.149975
  36 H :    0.134511
  37 H :    0.099311
  38 H :    0.208895
  39 H :    0.216952
  40 H :    0.221201
  41 H :    0.224715
  42 H :    0.125028
  43 H :    0.129121
Sum of atomic charges:    0.0000000

LOEWDIN ATOMIC CHARGES
----------------------
   0 C :   -0.066540
   1 C :   -0.396595
   2 N :   -0.073481
   3 C :   -0.398538
   4 C :   -0.067505
   5 C :   -0.447528
   6 C :   -0.026185
   7 C :   -0.012113
   8 C :   -0.293731
   9 C :    0.092857
  10 C :   -0.193979
  11 C :   -0.524673
  12 N :    0.360077
  13 C :   -0.472336
  14 C :   -0.038299
  15 C :   -0.156534
  16 C :   -0.155285
  17 C :   -0.020334
  18 C :   -0.404430
  19 N :    0.421500
  20 C :   -0.849411
  21 O :    0.381024
  22 O :    0.606776
  23 C :   -0.471299
  24 C :    0.063523
  25 H :    0.101027
  26 H :    0.117262
  27 H :    0.121084
  28 H :    0.192435
  29 H :    0.189546
  30 H :    0.188195
  31 H :    0.192500
  32 H :    0.117147
  33 H :    0.121000
  34 H :    0.100917
  35 H :    0.198755
  36 H :    0.198626
  37 H :    0.230887
  38 H :    0.179197
  39 H :    0.168468
  40 H :    0.168719
  41 H :    0.178998
  42 H :    0.165237
  43 H :    0.213038

  Mayer bond orders larger than 0.100000
B(  0-C ,  1-C ) :   0.8154 B(  0-C , 25-H ) :   0.9868 B(  0-C , 26-H ) :   0.9828
B(  0-C , 27-H ) :   0.9855 B(  1-C ,  2-N ) :   0.9144 B(  1-C , 28-H ) :   0.9808
B(  1-C , 29-H ) :   0.9947 B(  2-N ,  3-C ) :   0.9851 B(  2-N ,  5-C ) :   0.4902
B(  2-N ,  6-C ) :  -0.2307 B(  2-N , 23-C ) :   0.1286 B(  2-N , 24-C ) :  -0.2868
B(  3-C ,  4-C ) :   0.7810 B(  3-C , 16-C ) :  -0.1059 B(  3-C , 18-C ) :   0.1234
B(  3-C , 30-H ) :   0.9928 B(  3-C , 31-H ) :   0.9658 B(  4-C ,  5-C ) :   0.1707
B(  4-C ,  6-C ) :  -0.1381 B(  4-C , 32-H ) :   0.9823 B(  4-C , 33-H ) :   0.9793
B(  4-C , 34-H ) :   0.9958 B(  5-C ,  6-C ) :   0.7749 B(  5-C ,  7-C ) :  -0.1248
B(  5-C ,  8-C ) :  -0.1627 B(  5-C ,  9-C ) :   0.1474 B(  5-C , 13-C ) :  -0.1304
B(  5-C , 14-C ) :   0.1150 B(  5-C , 15-C ) :   0.1083 B(  5-C , 18-C ) :  -0.1986
B(  5-C , 24-C ) :   0.6325 B(  5-C , 43-H ) :  -0.1052 B(  6-C ,  7-C ) :   1.2672
B(  6-C ,  8-C ) :   0.2193 B(  6-C , 10-C ) :  -0.1118 B(  6-C , 13-C ) :  -0.1094
B(  6-C , 35-H ) :   1.0636 B(  7-C ,  9-C ) :   0.1812 B(  7-C , 36-H ) :   1.1927
B(  8-C ,  9-C ) :   0.8078 B(  8-C , 10-C ) :  -0.1097 B(  8-C , 12-N ) :   0.1826
B(  8-C , 14-C ) :  -0.1352 B(  8-C , 20-C ) :  -0.2259 B(  8-C , 21-O ) :  -0.1675
B(  8-C , 23-C ) :   1.0607 B(  8-C , 24-C ) :  -0.1015 B(  8-C , 36-H ) :  -0.1275
B(  9-C , 10-C ) :   0.8110 B(  9-C , 11-C ) :   0.1067 B(  9-C , 12-N ) :  -0.4136
B(  9-C , 14-C ) :   0.1230 B(  9-C , 18-C ) :   0.1002 B(  9-C , 20-C ) :  -0.1004
B(  9-C , 22-O ) :  -0.1421 B(  9-C , 23-C ) :   0.2669 B(  9-C , 24-C ) :   0.1057
B(  9-C , 37-H ) :   1.2403 B( 10-C , 11-C ) :  -0.5045 B( 10-C , 14-C ) :  -0.2197
B( 10-C , 15-C ) :  -0.1261 B( 10-C , 18-C ) :   0.2557 B( 10-C , 19-N ) :  -0.1524
B( 10-C , 20-C ) :   0.4425 B( 10-C , 21-O ) :  -0.3826 B( 10-C , 23-C ) :  -0.2994
B( 10-C , 37-H ) :  -0.2013 B( 11-C , 12-N ) :   1.0684 B( 11-C , 13-C ) :  -0.1573
B( 11-C , 14-C ) :   0.2012 B( 11-C , 15-C ) :   0.1257 B( 11-C , 17-C ) :   0.2353
B( 11-C , 19-N ) :   0.6465 B( 11-C , 20-C ) :   0.2947 B( 11-C , 21-O ) :   0.4573
B( 12-N , 13-C ) :   0.1142 B( 12-N , 14-C ) :   0.2704 B( 12-N , 18-C ) :   0.1260
B( 13-C , 15-C ) :  -0.2388 B( 13-C , 16-C ) :  -0.1022 B( 13-C , 18-C ) :   1.0209
B( 13-C , 19-N ) :  -0.1268 B( 13-C , 24-C ) :   0.1113 B( 14-C , 15-C ) :   1.3066
B( 14-C , 18-C ) :   0.2849 B( 14-C , 19-N ) :  -0.1226 B( 14-C , 38-H ) :   1.0172
B( 15-C , 16-C ) :   1.0956 B( 15-C , 39-H ) :   0.9985 B( 16-C , 17-C ) :   1.3343
B( 16-C , 18-C ) :  -0.1828 B( 16-C , 23-C ) :   0.1111 B( 16-C , 40-H ) :   0.9821
B( 17-C , 18-C ) :   0.6006 B( 17-C , 19-N ) :  -0.1175 B( 17-C , 41-H ) :   0.9903
B( 18-C , 19-N ) :   0.7483 B( 19-N , 21-O ) :  -0.1242 B( 19-N , 42-H ) :   1.1347
B( 20-C , 21-O ) :   0.9161 B( 20-C , 22-O ) :   0.9884 B( 20-C , 23-C ) :   0.4044
B( 21-O , 22-O ) :  -0.1628 B( 21-O , 24-C ) :   0.1434 B( 22-O , 23-C ) :   0.1411
B( 22-O , 24-C ) :   0.3914 B( 23-C , 24-C ) :   0.4801 B( 24-C , 43-H ) :   1.1556

MP2 TOTAL ENERGY:    -1087.852161327 Eh

-----------------------------------------------------------------------------
         ABSORPTION SPECTRUM VIA TRANSITION ELECTRIC DIPOLE MOMENTS
-----------------------------------------------------------------------------
State   Energy    Wavelength  fosc         T2        TX        TY        TZ
        (cm-1)      (nm)                 (au**2)    (au)      (au)      (au)
-----------------------------------------------------------------------------
   1   23779.5    420.5   1.383549755  19.15432  -4.27863   0.43688  -0.81043
   2   33319.0    300.1   0.061705889   0.60969   0.52119   0.48353  -0.32288
   3   32930.3    303.7   0.004265752   0.04265   0.15437   0.07831  -0.11262
   4   33914.7    294.9   0.087578506   0.85013  -0.84354   0.24410  -0.28105
   5   38346.6    260.8   0.005115593   0.04392  -0.04041   0.19305   0.07083
   6   36047.9    277.4   0.266529864   2.43411   1.42857   0.53669  -0.32444
   7   36208.3    276.2   0.073111175   0.66474   0.30141   0.62162  -0.43300
   8   40745.1    245.4   0.007679829   0.06205   0.02474  -0.23720  -0.07194
   9   40707.7    245.7   0.020066985   0.16229   0.32457   0.22229  -0.08676
  10   41693.6    239.8   0.018602058   0.14688   0.33668   0.15242  -0.10146

Dispersion correction           -0.044847756
FINAL SINGLE POINT ENERGY     -1086.372482859877

DIPOLE MOMENT
-------------
                                X             Y             Z
Electronic contribution:     31.57032      -3.27206       6.49690
Nuclear contribution   :    -36.33351       4.04667      -7.63426
                        -----------------------------------------
Total Dipole Moment    :     -4.76319       0.77462      -1.13736
                        -----------------------------------------
Magnitude (a.u.)       :      4.95799
Magnitude (Debye)      :     12.60220

Rotational constants in cm-1:     0.026480     0.002666     0.002454
Rotational constants in MHz :   793.857086    79.927084    73.557605

                             ****ORCA TERMINATED NORMALLY****
TOTAL RUN TIME: 0 days 12 hours 30 minutes 48 seconds 928 msec
