                         Program Version 5.0.2 -  RELEASE  -
|  1> ! pbe0 d3bj aug-cc-PVTZ RIJCOSX Opt
|  2> %maxcore 4000
|  3> %basis
|  4>  AuxJ "aug-cc-PVTZ/JK"
|  5>  AuxC "aug-cc-PVTZ/C"
|  6>  newGTO H "cc-PVTZ" end
|  7>  newAuxJGTO H "cc-PVTZ/JK" end
|  8>  newAuxCGTO H "cc-PVTZ/C" end
|  9> end
| 10> %cpcm
| 11>  SMD true
| 12>  SMDsolvent "ethanol"
| 13> end
| 14> %pal nprocs 4 end
| 15> * xyz 0 1
| 16> C         -5.31350       -0.67230        1.61530
| 17> C         -4.98860       -1.00350        0.15820
| 18> N         -4.31760        0.08600       -0.51830
| 19> C         -5.17770        1.01910       -1.21330
| 20> C         -5.38980        0.63450       -2.67850
| 21> C         -2.96420        0.22450       -0.49050
| 22> C         -2.30650        1.20300       -1.27640
| 23> C         -0.94740        1.34780       -1.25280
| 24> C         -0.13810        0.52510       -0.45370
| 25> C          1.27010        0.60840       -0.37510
| 26> C          1.97440       -0.24100        0.43220
| 27> C          3.41400       -0.15410        0.51230
| 28> N          4.13550        0.72660       -0.14420
| 29> C          5.42960        0.47250        0.20380
| 30> C          6.61000        1.09780       -0.19030
| 31> C          7.79230        0.61980        0.33000
| 32> C          7.82310       -0.45530        1.22370
| 33> C          6.66850       -1.09120        1.63080
| 34> C          5.47290       -0.61740        1.11380
| 35> N          4.17210       -0.98910        1.28630
| 36> C          1.27570       -1.24620        1.22220
| 37> O          1.80080       -2.05190        1.96550
| 38> O         -0.07990       -1.29110        1.12290
| 39> C         -0.78570       -0.45320        0.32350
| 40> C         -2.16100       -0.59690        0.31240
| 41> H         -5.82200       -1.51070        2.08350
| 42> H         -5.96020        0.20030        1.67140
| 43> H         -4.40520       -0.45840        2.17180
| 44> H         -5.91620       -1.21230       -0.38130
| 45> H         -4.37230       -1.90330        0.10310
| 46> H         -4.76340        2.02720       -1.14250
| 47> H         -6.14280        1.03090       -0.70010
| 48> H         -5.84560       -0.35020       -2.74970
| 49> H         -4.44230        0.60850       -3.20990
| 50> H         -6.04430        1.35450       -3.16240
| 51> H         -2.87500        1.84980       -1.92280
| 52> H         -0.47230        2.10160       -1.86230
| 53> H          1.80920        1.34470       -0.95160
| 54> H          6.58540        1.92670       -0.87970
| 55> H          8.72530        1.08330        0.04380
| 56> H          8.77620       -0.79370        1.60290
| 57> H          6.69150       -1.92120        2.32110
| 58> H          3.77900       -1.72240        1.86020
| 59> H         -2.57410       -1.35710        0.95190
| 60> *
| 61>
| 62>
| 63> $new_job
| 64> ! b2gp-plyp aug-cc-PVTZ RIJCOSX SP
| 65> %maxcore 4000
| 66> %basis
| 67>  AuxJ "aug-cc-PVTZ/JK"
| 68>  AuxC "aug-cc-PVTZ/C"
| 69>  newGTO H "cc-PVTZ" end
| 70>  newAuxJGTO H "cc-PVTZ/JK" end
| 71>  newAuxCGTO H "cc-PVTZ/C" end
| 72> end
| 73> %cpcm
| 74>  SMD true
| 75>  SMDsolvent "ethanol"
| 76> end
| 77> %pal nprocs 4 end
| 78> %tddft
| 79>  nroots 10
| 80>  maxdim 7
| 81> end
| 82> * xyzfile 0 1
| 83>
| 84>                          ****END OF INPUT****
 Total Charge           Charge          ....    0
 Multiplicity           Mult            ....    1
 Number of Electrons    NEL             ....  176
Dispersion correction           -0.050512418
FINAL SINGLE POINT ENERGY     -1087.520559859324
Dispersion correction            ... done
Dispersion correction           -0.050485993
FINAL SINGLE POINT ENERGY     -1087.522211036404
Dispersion correction            ... done
Dispersion correction           -0.050481570
FINAL SINGLE POINT ENERGY     -1087.522586941456
Dispersion correction            ... done
FINAL SINGLE POINT ENERGY     -1087.522617317687
FINAL SINGLE POINT ENERGY     -1087.522630148310
Dispersion correction            ... done
Dispersion correction           -0.050474457
FINAL SINGLE POINT ENERGY     -1087.522643632503
Dispersion correction            ... done
                    ***********************HURRAY********************
Dispersion correction           -0.050475151
FINAL SINGLE POINT ENERGY     -1087.522642050180

CARTESIAN COORDINATES (ANGSTROEM)
---------------------------------
  C     -5.351455   -0.694480    1.595443
  C     -4.981784   -1.013267    0.159140
  N     -4.308781    0.083345   -0.515844
  C     -5.168188    1.004067   -1.241455
  C     -5.359225    0.622375   -2.697063
  C     -2.969894    0.233947   -0.468232
  C     -2.316907    1.249315   -1.227615
  C     -0.960445    1.393885   -1.194053
  C     -0.150484    0.550080   -0.409872
  C      1.245311    0.626538   -0.331044
  C      1.969340   -0.228796    0.458194
  C      3.416077   -0.141812    0.515225
  N      4.142186    0.716494   -0.176291
  C      5.444900    0.453253    0.175671
  C      6.630693    1.053269   -0.246244
  C      7.818838    0.579850    0.281233
  C      7.842395   -0.469070    1.211806
  C      6.676702   -1.079911    1.643137
  C      5.487697   -0.601332    1.110425
  N      4.178484   -0.952497    1.299834
  C      1.277415   -1.225432    1.233179
  O      1.782295   -2.044916    1.983354
  O     -0.081223   -1.274225    1.130847
  C     -0.806064   -0.437529    0.340572
  C     -2.167355   -0.609068    0.329207
  H     -5.875191   -1.541642    2.043888
  H     -6.011254    0.174900    1.641950
  H     -4.465321   -0.483522    2.197326
  H     -5.882976   -1.236406   -0.415342
  H     -4.359569   -1.907875    0.106650
  H     -4.775034    2.017416   -1.153094
  H     -6.132027    1.008052   -0.728815
  H     -5.794821   -0.375628   -2.783006
  H     -4.410082    0.627954   -3.236517
  H     -6.033743    1.330176   -3.184127
  H     -2.894121    1.906342   -1.861072
  H     -0.485446    2.165897   -1.788625
  H      1.768566    1.379227   -0.909680
  H      6.616364    1.865168   -0.964177
  H      8.755531    1.029023   -0.027712
  H      8.794841   -0.808725    1.601199
  H      6.692737   -1.890497    2.361549
  H      3.792540   -1.671766    1.894890
  H     -2.591627   -1.382079    0.952361

 Multiplicity           Mult            ....    1
 Number of Electrons    NEL             ....  176
 Basis Dimension        Dim             .... 1416

ORBITAL ENERGIES
----------------

  NO   OCC          E(Eh)            E(eV)
   0   2.0000     -20.021474      -544.8120
   1   2.0000     -19.934815      -542.4539
   2   2.0000     -15.070326      -410.0844
   3   2.0000     -15.050040      -409.5324
   4   2.0000     -15.009547      -408.4305
   5   2.0000     -10.937568      -297.6264
   6   2.0000     -10.868810      -295.7554
   7   2.0000     -10.861979      -295.5695
   8   2.0000     -10.847467      -295.1746
   9   2.0000     -10.823725      -294.5285
  10   2.0000     -10.811783      -294.2036
  11   2.0000     -10.800726      -293.9027
  12   2.0000     -10.800565      -293.8983
  13   2.0000     -10.800424      -293.8945
  14   2.0000     -10.799456      -293.8681
  15   2.0000     -10.797433      -293.8131
  16   2.0000     -10.787961      -293.5553
  17   2.0000     -10.779210      -293.3172
  18   2.0000     -10.776461      -293.2424
  19   2.0000     -10.774818      -293.1977
  20   2.0000     -10.774565      -293.1908
  21   2.0000     -10.773470      -293.1610
  22   2.0000     -10.771465      -293.1065
  23   2.0000     -10.755678      -292.6769
  24   2.0000     -10.755661      -292.6764
  25   2.0000      -1.341628       -36.5075
  26   2.0000      -1.239171       -33.7195
  27   2.0000      -1.210088       -32.9282
  28   2.0000      -1.148265       -31.2459
  29   2.0000      -1.052663       -28.6444
  30   2.0000      -1.045358       -28.4456
  31   2.0000      -1.021930       -27.8081
  32   2.0000      -0.997231       -27.1360
  33   2.0000      -0.933871       -25.4119
  34   2.0000      -0.933191       -25.3934
  35   2.0000      -0.916470       -24.9384
  36   2.0000      -0.899132       -24.4666
  37   2.0000      -0.891336       -24.2545
  38   2.0000      -0.864661       -23.5286
  39   2.0000      -0.810842       -22.0641
  40   2.0000      -0.797240       -21.6940
  41   2.0000      -0.777214       -21.1491
  42   2.0000      -0.759053       -20.6549
  43   2.0000      -0.753311       -20.4986
  44   2.0000      -0.741825       -20.1861
  45   2.0000      -0.727423       -19.7942
  46   2.0000      -0.713959       -19.4278
  47   2.0000      -0.665868       -18.1192
  48   2.0000      -0.657085       -17.8802
  49   2.0000      -0.634301       -17.2602
  50   2.0000      -0.630909       -17.1679
  51   2.0000      -0.618037       -16.8176
  52   2.0000      -0.600311       -16.3353
  53   2.0000      -0.595317       -16.1994
  54   2.0000      -0.588646       -16.0179
  55   2.0000      -0.574327       -15.6282
  56   2.0000      -0.561590       -15.2816
  57   2.0000      -0.557110       -15.1597
  58   2.0000      -0.550836       -14.9890
  59   2.0000      -0.547069       -14.8865
  60   2.0000      -0.539568       -14.6824
  61   2.0000      -0.532185       -14.4815
  62   2.0000      -0.527517       -14.3545
  63   2.0000      -0.524544       -14.2736
  64   2.0000      -0.519938       -14.1482
  65   2.0000      -0.512043       -13.9334
  66   2.0000      -0.499895       -13.6028
  67   2.0000      -0.483600       -13.1594
  68   2.0000      -0.479602       -13.0506
  69   2.0000      -0.472859       -12.8672
  70   2.0000      -0.457164       -12.4401
  71   2.0000      -0.454604       -12.3704
  72   2.0000      -0.452630       -12.3167
  73   2.0000      -0.451719       -12.2919
  74   2.0000      -0.445423       -12.1206
  75   2.0000      -0.437599       -11.9077
  76   2.0000      -0.429529       -11.6881
  77   2.0000      -0.428559       -11.6617
  78   2.0000      -0.417843       -11.3701
  79   2.0000      -0.405259       -11.0277
  80   2.0000      -0.398455       -10.8425
  81   2.0000      -0.385237       -10.4828
  82   2.0000      -0.376711       -10.2508
  83   2.0000      -0.346505        -9.4289
  84   2.0000      -0.312205        -8.4955
  85   2.0000      -0.284655        -7.7459
  86   2.0000      -0.279882        -7.6160
  87   2.0000      -0.236774        -6.4429
  88   0.0000      -0.012647        -0.3441
  89   0.0000       0.028263         0.7691
  90   0.0000       0.030397         0.8271
  91   0.0000       0.034975         0.9517
  92   0.0000       0.038074         1.0361

MULLIKEN ATOMIC CHARGES
-----------------------
   0 C :   -0.672625
   1 C :   -0.467926
   2 N :    0.239250
   3 C :   -0.433227
   4 C :   -0.689812
   5 C :    0.911081
   6 C :   -0.418341
   7 C :   -1.320618
   8 C :    1.388658
   9 C :   -0.929930
  10 C :    2.191587
  11 C :   -0.610311
  12 N :   -1.077774
  13 C :    1.671257
  14 C :   -0.949403
  15 C :   -0.383599
  16 C :   -0.324891
  17 C :   -0.948174
  18 C :    0.559042
  19 N :   -0.012401
  20 C :    0.369084
  21 O :   -1.188634
  22 O :   -0.689386
  23 C :    0.960584
  24 C :   -0.927540
  25 H :    0.206246
  26 H :    0.201937
  27 H :    0.202291
  28 H :    0.238982
  29 H :    0.205869
  30 H :    0.216656
  31 H :    0.244591
  32 H :    0.204378
  33 H :    0.212985
  34 H :    0.197369
  35 H :    0.162518
  36 H :    0.150382
  37 H :    0.118524
  38 H :    0.220554
  39 H :    0.225883
  40 H :    0.231678
  41 H :    0.237376
  42 H :    0.136602
  43 H :    0.139229
Sum of atomic charges:   -0.0000000

LOEWDIN ATOMIC CHARGES
----------------------
   0 C :   -0.066346
   1 C :   -0.396755
   2 N :   -0.074962
   3 C :   -0.398624
   4 C :   -0.067300
   5 C :   -0.447851
   6 C :   -0.025228
   7 C :   -0.011018
   8 C :   -0.292189
   9 C :    0.096980
  10 C :   -0.190168
  11 C :   -0.524993
  12 N :    0.358065
  13 C :   -0.474097
  14 C :   -0.037957
  15 C :   -0.157221
  16 C :   -0.155949
  17 C :   -0.020213
  18 C :   -0.405831
  19 N :    0.421127
  20 C :   -0.846747
  21 O :    0.376248
  22 O :    0.603965
  23 C :   -0.471073
  24 C :    0.065082
  25 H :    0.100685
  26 H :    0.116898
  27 H :    0.120686
  28 H :    0.192158
  29 H :    0.189264
  30 H :    0.187926
  31 H :    0.192237
  32 H :    0.116773
  33 H :    0.120615
  34 H :    0.100581
  35 H :    0.198676
  36 H :    0.199477
  37 H :    0.232268
  38 H :    0.179502
  39 H :    0.168678
  40 H :    0.168930
  41 H :    0.179295
  42 H :    0.165464
  43 H :    0.212941

  Mayer bond orders larger than 0.100000
B(  0-C ,  1-C ) :   0.8288 B(  0-C , 25-H ) :   0.9831 B(  0-C , 26-H ) :   0.9798
B(  0-C , 27-H ) :   0.9824 B(  1-C ,  2-N ) :   0.9218 B(  1-C , 28-H ) :   0.9791
B(  1-C , 29-H ) :   0.9936 B(  2-N ,  3-C ) :   0.9981 B(  2-N ,  5-C ) :   0.5165
B(  2-N ,  6-C ) :  -0.2441 B(  2-N , 23-C ) :   0.1275 B(  2-N , 24-C ) :  -0.3092
B(  3-C ,  4-C ) :   0.7882 B(  3-C , 16-C ) :  -0.1439 B(  3-C , 18-C ) :   0.1688
B(  3-C , 30-H ) :   0.9912 B(  3-C , 31-H ) :   0.9611 B(  4-C ,  5-C ) :   0.1851
B(  4-C ,  6-C ) :  -0.1589 B(  4-C , 32-H ) :   0.9795 B(  4-C , 33-H ) :   0.9756
B(  4-C , 34-H ) :   0.9944 B(  5-C ,  6-C ) :   0.7553 B(  5-C ,  7-C ) :  -0.1122
B(  5-C ,  8-C ) :  -0.1857 B(  5-C ,  9-C ) :   0.1462 B(  5-C , 13-C ) :  -0.1530
B(  5-C , 14-C ) :   0.1407 B(  5-C , 15-C ) :   0.1504 B(  5-C , 18-C ) :  -0.2903
B(  5-C , 24-C ) :   0.6480 B(  5-C , 43-H ) :  -0.1089 B(  6-C ,  7-C ) :   1.2617
B(  6-C ,  8-C ) :   0.2316 B(  6-C , 10-C ) :  -0.1346 B(  6-C , 13-C ) :  -0.1425
B(  6-C , 14-C ) :   0.1152 B(  6-C , 16-C ) :  -0.1024 B(  6-C , 35-H ) :   1.0646
B(  7-C ,  9-C ) :   0.2173 B(  7-C , 15-C ) :   0.1064 B(  7-C , 18-C ) :  -0.1011
B(  7-C , 36-H ) :   1.1918 B(  8-C ,  9-C ) :   0.8682 B(  8-C , 10-C ) :  -0.1374
B(  8-C , 12-N ) :   0.1754 B(  8-C , 14-C ) :  -0.1854 B(  8-C , 20-C ) :  -0.1823
B(  8-C , 21-O ) :  -0.1792 B(  8-C , 23-C ) :   1.0801 B(  8-C , 24-C ) :  -0.1192
B(  8-C , 36-H ) :  -0.1239 B(  9-C , 10-C ) :   0.8187 B(  9-C , 11-C ) :   0.1253
B(  9-C , 12-N ) :  -0.4339 B(  9-C , 14-C ) :   0.1614 B(  9-C , 18-C ) :   0.1025
B(  9-C , 22-O ) :  -0.1571 B(  9-C , 23-C ) :   0.2157 B(  9-C , 24-C ) :   0.1042
B(  9-C , 37-H ) :   1.2225 B( 10-C , 11-C ) :  -0.5149 B( 10-C , 14-C ) :  -0.2429
B( 10-C , 15-C ) :  -0.1386 B( 10-C , 18-C ) :   0.2682 B( 10-C , 19-N ) :  -0.1659
B( 10-C , 20-C ) :   0.3973 B( 10-C , 21-O ) :  -0.4375 B( 10-C , 23-C ) :  -0.3017
B( 10-C , 37-H ) :  -0.2012 B( 11-C , 12-N ) :   1.0133 B( 11-C , 13-C ) :  -0.1542
B( 11-C , 14-C ) :   0.2158 B( 11-C , 15-C ) :   0.1284 B( 11-C , 17-C ) :   0.2658
B( 11-C , 19-N ) :   0.6345 B( 11-C , 20-C ) :   0.3310 B( 11-C , 21-O ) :   0.4775
B( 12-N , 13-C ) :   0.1548 B( 12-N , 14-C ) :   0.2701 B( 12-N , 18-C ) :   0.1096
B( 13-C , 15-C ) :  -0.2546 B( 13-C , 18-C ) :   1.0454 B( 13-C , 19-N ) :  -0.1442
B( 13-C , 24-C ) :   0.1525 B( 14-C , 15-C ) :   1.3154 B( 14-C , 18-C ) :   0.3134
B( 14-C , 19-N ) :  -0.1380 B( 14-C , 38-H ) :   1.0226 B( 15-C , 16-C ) :   1.0552
B( 15-C , 24-C ) :  -0.1126 B( 15-C , 39-H ) :   1.0069 B( 16-C , 17-C ) :   1.3464
B( 16-C , 18-C ) :  -0.1830 B( 16-C , 23-C ) :   0.1683 B( 16-C , 40-H ) :   0.9856
B( 17-C , 18-C ) :   0.5554 B( 17-C , 19-N ) :  -0.1224 B( 17-C , 41-H ) :   0.9948
B( 18-C , 19-N ) :   0.7607 B( 19-N , 21-O ) :  -0.1293 B( 19-N , 42-H ) :   1.1342
B( 20-C , 21-O ) :   0.9522 B( 20-C , 22-O ) :   1.0144 B( 20-C , 23-C ) :   0.3910
B( 21-O , 22-O ) :  -0.1867 B( 21-O , 24-C ) :   0.1518 B( 22-O , 23-C ) :   0.1826
B( 22-O , 24-C ) :   0.3690 B( 23-C , 24-C ) :   0.4812 B( 24-C , 43-H ) :   1.1638

MP2 TOTAL ENERGY:    -1087.645510598 Eh

-----------------------------------------------------------------------------
         ABSORPTION SPECTRUM VIA TRANSITION ELECTRIC DIPOLE MOMENTS
-----------------------------------------------------------------------------
State   Energy    Wavelength  fosc         T2        TX        TY        TZ
        (cm-1)      (nm)                 (au**2)    (au)      (au)      (au)
-----------------------------------------------------------------------------
   1   24404.9    409.8   1.375764201  18.55845   4.20934  -0.43859   0.80469
   2   34329.0    291.3   0.062904325   0.60325  -0.52337  -0.47980   0.31484
   3   35162.7    284.4   0.035850416   0.33565  -0.55629  -0.11578   0.11306
   4   39400.0    253.8   0.004904474   0.04098  -0.02257   0.18473   0.07965
   5   36276.4    275.7   0.085515967   0.77607  -0.78349   0.26149  -0.30632
   6   37898.8    263.9   0.182732338   1.58732   1.13271   0.46275  -0.30027
   7   42056.0    237.8   0.011068139   0.08664  -0.03833  -0.28450  -0.06507
   8   37953.5    263.5   0.118125262   1.02463  -0.47263  -0.72193   0.52921
   9   42547.9    235.0   0.010462200   0.08095   0.15454   0.21202  -0.11006
  10   42026.3    237.9   0.024807384   0.19433   0.23071   0.31121  -0.21035

Dispersion correction           -0.033096300
FINAL SINGLE POINT ENERGY     -1085.778652534103

DIPOLE MOMENT
-------------
                                X             Y             Z
Electronic contribution:     31.58153      -3.23322       6.46650
Nuclear contribution   :    -36.33351       4.04667      -7.63426
                        -----------------------------------------
Total Dipole Moment    :     -4.75198       0.81345      -1.16776
                        -----------------------------------------
Magnitude (a.u.)       :      4.96052
Magnitude (Debye)      :     12.60863

Rotational constants in cm-1:     0.026480     0.002666     0.002454
Rotational constants in MHz :   793.857086    79.927084    73.557605

                             ****ORCA TERMINATED NORMALLY****
TOTAL RUN TIME: 0 days 12 hours 18 minutes 48 seconds 960 msec
