                         Program Version 5.0.2 -  RELEASE  -
|  1> ! pbe0 aug-cc-PVTZ RIJCOSX Opt
|  2> %maxcore 4000
|  3> %basis
|  4>  AuxJ "aug-cc-PVTZ/JK"
|  5>  AuxC "aug-cc-PVTZ/C"
|  6>  newGTO H "cc-PVTZ" end
|  7>  newAuxJGTO H "cc-PVTZ/JK" end
|  8>  newAuxCGTO H "cc-PVTZ/C" end
|  9> end
| 10> %cpcm
| 11>  SMD true
| 12>  SMDsolvent "ethanol"
| 13> end
| 14> %pal nprocs 4 end
| 15> * xyz 0 1
| 16> C         -5.31350       -0.67230        1.61530
| 17> C         -4.98860       -1.00350        0.15820
| 18> N         -4.31760        0.08600       -0.51830
| 19> C         -5.17770        1.01910       -1.21330
| 20> C         -5.38980        0.63450       -2.67850
| 21> C         -2.96420        0.22450       -0.49050
| 22> C         -2.30650        1.20300       -1.27640
| 23> C         -0.94740        1.34780       -1.25280
| 24> C         -0.13810        0.52510       -0.45370
| 25> C          1.27010        0.60840       -0.37510
| 26> C          1.97440       -0.24100        0.43220
| 27> C          3.41400       -0.15410        0.51230
| 28> N          4.13550        0.72660       -0.14420
| 29> C          5.42960        0.47250        0.20380
| 30> C          6.61000        1.09780       -0.19030
| 31> C          7.79230        0.61980        0.33000
| 32> C          7.82310       -0.45530        1.22370
| 33> C          6.66850       -1.09120        1.63080
| 34> C          5.47290       -0.61740        1.11380
| 35> N          4.17210       -0.98910        1.28630
| 36> C          1.27570       -1.24620        1.22220
| 37> O          1.80080       -2.05190        1.96550
| 38> O         -0.07990       -1.29110        1.12290
| 39> C         -0.78570       -0.45320        0.32350
| 40> C         -2.16100       -0.59690        0.31240
| 41> H         -5.82200       -1.51070        2.08350
| 42> H         -5.96020        0.20030        1.67140
| 43> H         -4.40520       -0.45840        2.17180
| 44> H         -5.91620       -1.21230       -0.38130
| 45> H         -4.37230       -1.90330        0.10310
| 46> H         -4.76340        2.02720       -1.14250
| 47> H         -6.14280        1.03090       -0.70010
| 48> H         -5.84560       -0.35020       -2.74970
| 49> H         -4.44230        0.60850       -3.20990
| 50> H         -6.04430        1.35450       -3.16240
| 51> H         -2.87500        1.84980       -1.92280
| 52> H         -0.47230        2.10160       -1.86230
| 53> H          1.80920        1.34470       -0.95160
| 54> H          6.58540        1.92670       -0.87970
| 55> H          8.72530        1.08330        0.04380
| 56> H          8.77620       -0.79370        1.60290
| 57> H          6.69150       -1.92120        2.32110
| 58> H          3.77900       -1.72240        1.86020
| 59> H         -2.57410       -1.35710        0.95190
| 60> *
| 61>
| 62>
| 63> $new_job
| 64> ! pbe0 aug-cc-PVTZ RIJCOSX SP
| 65> %maxcore 4000
| 66> %basis
| 67>  AuxJ "aug-cc-PVTZ/JK"
| 68>  AuxC "aug-cc-PVTZ/C"
| 69>  newGTO H "cc-PVTZ" end
| 70>  newAuxJGTO H "cc-PVTZ/JK" end
| 71>  newAuxCGTO H "cc-PVTZ/C" end
| 72> end
| 73> %cpcm
| 74>  SMD true
| 75>  SMDsolvent "ethanol"
| 76> end
| 77> %pal nprocs 4 end
| 78> %tddft
| 79>  nroots 10
| 80>  maxdim 7
| 81> end
| 82> * xyzfile 0 1
| 83>
| 84>                          ****END OF INPUT****
 Total Charge           Charge          ....    0
 Multiplicity           Mult            ....    1
 Number of Electrons    NEL             ....  176
FINAL SINGLE POINT ENERGY     -1087.470047552537
FINAL SINGLE POINT ENERGY     -1087.471750175262
FINAL SINGLE POINT ENERGY     -1087.472140183150
FINAL SINGLE POINT ENERGY     -1087.472177326297
FINAL SINGLE POINT ENERGY     -1087.472186246453
FINAL SINGLE POINT ENERGY     -1087.472200840984
                    ***********************HURRAY********************
FINAL SINGLE POINT ENERGY     -1087.472203424480

CARTESIAN COORDINATES (ANGSTROEM)
---------------------------------
  C     -5.374930   -0.698645    1.590597
  C     -4.984459   -1.014596    0.158049
  N     -4.308609    0.083437   -0.515132
  C     -5.169412    1.004305   -1.242154
  C     -5.370320    0.624339   -2.697955
  C     -2.968217    0.234605   -0.466249
  C     -2.313473    1.249744   -1.225672
  C     -0.956598    1.394867   -1.191643
  C     -0.145796    0.551782   -0.406979
  C      1.250910    0.627300   -0.328063
  C      1.975840   -0.227518    0.461474
  C      3.424403   -0.141474    0.517502
  N      4.149185    0.714745   -0.176853
  C      5.451036    0.451100    0.174618
  C      6.637002    1.049806   -0.250498
  C      7.825756    0.577438    0.276334
  C      7.850068   -0.469416    1.209626
  C      6.684670   -1.078559    1.643802
  C      5.494734   -0.600596    1.111242
  N      4.186133   -0.950909    1.303190
  C      1.282339   -1.223018    1.237736
  O      1.785969   -2.042153    1.989285
  O     -0.076807   -1.271133    1.134995
  C     -0.802078   -0.435018    0.343693
  C     -2.164134   -0.606910    0.332217
  H     -5.900799   -1.549874    2.029318
  H     -6.040824    0.166522    1.631408
  H     -4.499098   -0.485444    2.206728
  H     -5.878501   -1.243994   -0.425638
  H     -4.358419   -1.907122    0.114758
  H     -4.775230    2.017692   -1.156954
  H     -6.131748    1.011250   -0.726217
  H     -5.809226   -0.372276   -2.784701
  H     -4.425932    0.630302   -3.245884
  H     -6.047548    1.334709   -3.177986
  H     -2.889529    1.907063   -1.860319
  H     -0.482564    2.167175   -1.787035
  H      1.773747    1.379709   -0.907845
  H      6.622258    1.860091   -0.970561
  H      8.762342    1.025577   -0.035081
  H      8.803003   -0.808621    1.598744
  H      6.701664   -1.887510    2.364335
  H      3.800618   -1.668765    1.900475
  H     -2.587526   -1.379910    0.956493

 Multiplicity           Mult            ....    1
 Number of Electrons    NEL             ....  176
 Basis Dimension        Dim             .... 1416

ORBITAL ENERGIES
----------------

  NO   OCC          E(Eh)            E(eV)
   0   2.0000     -19.287433      -524.8377
   1   2.0000     -19.202265      -522.5202
   2   2.0000     -14.432610      -392.7313
   3   2.0000     -14.420969      -392.4145
   4   2.0000     -14.371675      -391.0731
   5   2.0000     -10.368647      -282.1452
   6   2.0000     -10.310250      -280.5562
   7   2.0000     -10.302554      -280.3467
   8   2.0000     -10.290589      -280.0212
   9   2.0000     -10.262497      -279.2567
  10   2.0000     -10.262178      -279.2480
  11   2.0000     -10.254171      -279.0302
  12   2.0000     -10.253173      -279.0030
  13   2.0000     -10.252955      -278.9971
  14   2.0000     -10.250018      -278.9172
  15   2.0000     -10.242996      -278.7261
  16   2.0000     -10.242227      -278.7052
  17   2.0000     -10.230373      -278.3826
  18   2.0000     -10.230078      -278.3746
  19   2.0000     -10.228782      -278.3393
  20   2.0000     -10.225361      -278.2462
  21   2.0000     -10.224750      -278.2296
  22   2.0000     -10.222929      -278.1800
  23   2.0000     -10.208356      -277.7835
  24   2.0000     -10.208330      -277.7828
  25   2.0000      -1.165746       -31.7215
  26   2.0000      -1.071103       -29.1462
  27   2.0000      -1.052721       -28.6460
  28   2.0000      -0.996800       -27.1243
  29   2.0000      -0.908095       -24.7105
  30   2.0000      -0.899839       -24.4859
  31   2.0000      -0.879639       -23.9362
  32   2.0000      -0.856880       -23.3169
  33   2.0000      -0.802591       -21.8396
  34   2.0000      -0.801391       -21.8070
  35   2.0000      -0.786810       -21.4102
  36   2.0000      -0.769337       -20.9347
  37   2.0000      -0.763474       -20.7752
  38   2.0000      -0.739217       -20.1151
  39   2.0000      -0.695837       -18.9347
  40   2.0000      -0.682776       -18.5793
  41   2.0000      -0.664624       -18.0853
  42   2.0000      -0.649813       -17.6823
  43   2.0000      -0.644401       -17.5350
  44   2.0000      -0.635448       -17.2914
  45   2.0000      -0.621586       -16.9142
  46   2.0000      -0.609873       -16.5955
  47   2.0000      -0.569073       -15.4853
  48   2.0000      -0.559808       -15.2332
  49   2.0000      -0.539458       -14.6794
  50   2.0000      -0.536876       -14.6091
  51   2.0000      -0.528054       -14.3691
  52   2.0000      -0.508683       -13.8420
  53   2.0000      -0.504250       -13.7213
  54   2.0000      -0.498102       -13.5540
  55   2.0000      -0.484124       -13.1737
  56   2.0000      -0.472487       -12.8570
  57   2.0000      -0.470548       -12.8043
  58   2.0000      -0.467338       -12.7169
  59   2.0000      -0.458179       -12.4677
  60   2.0000      -0.454601       -12.3703
  61   2.0000      -0.447863       -12.1870
  62   2.0000      -0.445861       -12.1325
  63   2.0000      -0.442715       -12.0469
  64   2.0000      -0.436715       -11.8836
  65   2.0000      -0.430713       -11.7203
  66   2.0000      -0.417427       -11.3588
  67   2.0000      -0.410470       -11.1694
  68   2.0000      -0.401774       -10.9328
  69   2.0000      -0.394649       -10.7389
  70   2.0000      -0.382923       -10.4199
  71   2.0000      -0.382588       -10.4107
  72   2.0000      -0.376424       -10.2430
  73   2.0000      -0.374051       -10.1784
  74   2.0000      -0.366855        -9.9826
  75   2.0000      -0.364852        -9.9281
  76   2.0000      -0.359553        -9.7839
  77   2.0000      -0.355679        -9.6785
  78   2.0000      -0.349044        -9.4980
  79   2.0000      -0.342620        -9.3232
  80   2.0000      -0.327555        -8.9132
  81   2.0000      -0.312260        -8.4970
  82   2.0000      -0.298713        -8.1284
  83   2.0000      -0.295420        -8.0388
  84   2.0000      -0.266740        -7.2584
  85   2.0000      -0.246620        -6.7109
  86   2.0000      -0.241779        -6.5791
  87   2.0000      -0.204391        -5.5618
  88   0.0000      -0.073875        -2.0102
  89   0.0000      -0.023507        -0.6397
  90   0.0000      -0.008984        -0.2445
  91   0.0000       0.005467         0.1488
  92   0.0000       0.005591         0.1522

MULLIKEN ATOMIC CHARGES
-----------------------
   0 C :   -0.571336
   1 C :   -0.408558
   2 N :    0.255789
   3 C :   -0.403196
   4 C :   -0.577636
   5 C :    0.833907
   6 C :   -0.642315
   7 C :   -1.147565
   8 C :    1.267298
   9 C :   -0.868568
  10 C :    1.664404
  11 C :   -0.240299
  12 N :   -1.004344
  13 C :    1.456292
  14 C :   -0.818680
  15 C :   -0.394124
  16 C :   -0.352221
  17 C :   -0.777896
  18 C :    0.370228
  19 N :   -0.049911
  20 C :    0.422468
  21 O :   -1.097422
  22 O :   -0.539356
  23 C :    0.777716
  24 C :   -0.793167
  25 H :    0.173721
  26 H :    0.178030
  27 H :    0.187375
  28 H :    0.219527
  29 H :    0.190411
  30 H :    0.195868
  31 H :    0.217002
  32 H :    0.179862
  33 H :    0.191002
  34 H :    0.172291
  35 H :    0.180398
  36 H :    0.165573
  37 H :    0.122178
  38 H :    0.240690
  39 H :    0.234652
  40 H :    0.238157
  41 H :    0.252491
  42 H :    0.122121
  43 H :    0.177142
Sum of atomic charges:   -0.0000000

LOEWDIN ATOMIC CHARGES
----------------------
   0 C :   -0.067505
   1 C :   -0.399676
   2 N :   -0.069386
   3 C :   -0.401959
   4 C :   -0.068569
   5 C :   -0.451955
   6 C :   -0.030298
   7 C :   -0.016356
   8 C :   -0.301389
   9 C :    0.080203
  10 C :   -0.205250
  11 C :   -0.529552
  12 N :    0.368617
  13 C :   -0.473801
  14 C :   -0.039555
  15 C :   -0.155884
  16 C :   -0.154727
  17 C :   -0.021471
  18 C :   -0.406025
  19 N :    0.425948
  20 C :   -0.860634
  21 O :    0.398982
  22 O :    0.618516
  23 C :   -0.476935
  24 C :    0.059382
  25 H :    0.103753
  26 H :    0.119092
  27 H :    0.122448
  28 H :    0.195646
  29 H :    0.192456
  30 H :    0.191096
  31 H :    0.195722
  32 H :    0.119002
  33 H :    0.122560
  34 H :    0.103647
  35 H :    0.201201
  36 H :    0.199110
  37 H :    0.229775
  38 H :    0.180778
  39 H :    0.170240
  40 H :    0.170518
  41 H :    0.180530
  42 H :    0.166198
  43 H :    0.215508

  Mayer bond orders larger than 0.100000
B(  0-C ,  1-C ) :   0.8483 B(  0-C , 25-H ) :   0.9793 B(  0-C , 26-H ) :   0.9732
B(  0-C , 27-H ) :   0.9714 B(  1-C ,  2-N ) :   0.9437 B(  1-C , 28-H ) :   0.9571
B(  1-C , 29-H ) :   0.9641 B(  2-N ,  3-C ) :   0.9946 B(  2-N ,  5-C ) :   0.5368
B(  2-N ,  6-C ) :  -0.1921 B(  2-N , 23-C ) :   0.1286 B(  2-N , 24-C ) :  -0.2101
B(  3-C ,  4-C ) :   0.8405 B(  3-C , 30-H ) :   0.9645 B(  3-C , 31-H ) :   0.9542
B(  4-C ,  5-C ) :   0.1339 B(  4-C ,  6-C ) :  -0.1047 B(  4-C , 32-H ) :   0.9719
B(  4-C , 33-H ) :   0.9693 B(  4-C , 34-H ) :   0.9806 B(  5-C ,  6-C ) :   0.7939
B(  5-C ,  8-C ) :  -0.1791 B(  5-C ,  9-C ) :   0.1292 B(  5-C , 24-C ) :   0.6333
B(  6-C ,  7-C ) :   1.4303 B(  6-C ,  8-C ) :   0.2025 B(  6-C , 35-H ) :   0.9910
B(  7-C ,  8-C ) :   0.3290 B(  7-C ,  9-C ) :   0.1479 B(  7-C , 23-C ) :  -0.1461
B(  7-C , 36-H ) :   1.0777 B(  8-C ,  9-C ) :   0.8556 B(  8-C , 10-C ) :  -0.1962
B(  8-C , 11-C ) :   0.1252 B(  8-C , 12-N ) :   0.1718 B(  8-C , 20-C ) :  -0.2972
B(  8-C , 21-O ) :  -0.1594 B(  8-C , 23-C ) :   1.1540 B(  8-C , 24-C ) :  -0.1141
B(  9-C , 10-C ) :   0.9416 B(  9-C , 12-N ) :  -0.3856 B(  9-C , 23-C ) :   0.2142
B(  9-C , 24-C ) :   0.1064 B(  9-C , 37-H ) :   1.1395 B( 10-C , 11-C ) :  -0.1370
B( 10-C , 14-C ) :  -0.1081 B( 10-C , 18-C ) :   0.1384 B( 10-C , 19-N ) :  -0.1344
B( 10-C , 20-C ) :   0.7102 B( 10-C , 21-O ) :  -0.2428 B( 10-C , 23-C ) :  -0.2145
B( 11-C , 12-N ) :   1.0791 B( 11-C , 14-C ) :   0.1501 B( 11-C , 17-C ) :   0.1718
B( 11-C , 19-N ) :   0.7484 B( 11-C , 20-C ) :   0.1424 B( 11-C , 21-O ) :   0.3690
B( 12-N , 13-C ) :   0.1216 B( 12-N , 14-C ) :   0.2235 B( 12-N , 18-C ) :   0.1888
B( 13-C , 14-C ) :   0.3640 B( 13-C , 15-C ) :  -0.1850 B( 13-C , 18-C ) :   1.0122
B( 14-C , 15-C ) :   1.3913 B( 14-C , 16-C ) :   0.1433 B( 14-C , 18-C ) :   0.1673
B( 14-C , 38-H ) :   0.9088 B( 15-C , 16-C ) :   1.2789 B( 15-C , 17-C ) :   0.1099
B( 15-C , 39-H ) :   0.9245 B( 16-C , 17-C ) :   1.3683 B( 16-C , 18-C ) :  -0.1884
B( 16-C , 40-H ) :   0.9190 B( 17-C , 18-C ) :   0.8465 B( 17-C , 19-N ) :  -0.1308
B( 17-C , 41-H ) :   0.8865 B( 18-C , 19-N ) :   0.8028 B( 19-N , 42-H ) :   1.1108
B( 20-C , 21-O ) :   0.8321 B( 20-C , 22-O ) :   0.9899 B( 20-C , 23-C ) :   0.4008
B( 21-O , 24-C ) :   0.1535 B( 22-O , 23-C ) :   0.1695 B( 22-O , 24-C ) :   0.3697
B( 23-C , 24-C ) :   0.5880 B( 24-C , 43-H ) :   1.0303

-----------------------------------------------------------------------------
         ABSORPTION SPECTRUM VIA TRANSITION ELECTRIC DIPOLE MOMENTS
-----------------------------------------------------------------------------
State   Energy    Wavelength  fosc         T2        TX        TY        TZ
        (cm-1)      (nm)                 (au**2)    (au)      (au)      (au)
-----------------------------------------------------------------------------
   1   25154.0    397.6   1.539809628  20.15284  -4.39769   0.41257  -0.80185
   2   32068.9    311.8   0.032797611   0.33669   0.47274  -0.21944   0.25507
   3   33420.3    299.2   0.007213528   0.07106  -0.20035   0.13368  -0.11423
   4   34072.0    293.5   0.104825055   1.01285   0.81105   0.50540  -0.31563
   5   35430.9    282.2   0.328906275   3.05609   1.69453   0.39344  -0.17278
   6   37244.3    268.5   0.029274412   0.25876  -0.33101   0.30826  -0.23276
   7   39790.5    251.3   0.006851138   0.05668  -0.01499   0.23633   0.02460
   8   40842.3    244.8   0.002185405   0.01762   0.09799  -0.07091  -0.05465
   9   40875.0    244.6   0.127528974   1.02713  -1.00859  -0.08160  -0.05669
  10   41590.5    240.4   0.008160260   0.06459   0.01428   0.25069  -0.03931

FINAL SINGLE POINT ENERGY     -1087.357593845272

DIPOLE MOMENT
-------------
                                X             Y             Z
Electronic contribution:     31.59212      -3.38203       6.62648
Nuclear contribution   :    -36.44769       4.03109      -7.67270
                        -----------------------------------------
Total Dipole Moment    :     -4.85557       0.64907      -1.04621
                        -----------------------------------------
Magnitude (a.u.)       :      5.00923
Magnitude (Debye)      :     12.73244

Rotational constants in cm-1:     0.026471     0.002660     0.002448
Rotational constants in MHz :   793.594913    79.747903    73.397283

                             ****ORCA TERMINATED NORMALLY****
TOTAL RUN TIME: 0 days 5 hours 2 minutes 55 seconds 199 msec
