                         Program Version 5.0.2 -  RELEASE  -
|  1> ! wb97x-d3 aug-cc-PVTZ RIJCOSX Opt
|  2> %maxcore 4000
|  3> %basis
|  4>  AuxJ "aug-cc-PVTZ/JK"
|  5>  AuxC "aug-cc-PVTZ/C"
|  6>  newGTO H "cc-PVTZ" end
|  7>  newAuxJGTO H "cc-PVTZ/JK" end
|  8>  newAuxCGTO H "cc-PVTZ/C" end
|  9> end
| 10> %cpcm
| 11>  SMD true
| 12>  SMDsolvent "ethanol"
| 13> end
| 14> %pal nprocs 4 end
| 15> * xyz 0 1
| 16> C         -5.31350       -0.67230        1.61530
| 17> C         -4.98860       -1.00350        0.15820
| 18> N         -4.31760        0.08600       -0.51830
| 19> C         -5.17770        1.01910       -1.21330
| 20> C         -5.38980        0.63450       -2.67850
| 21> C         -2.96420        0.22450       -0.49050
| 22> C         -2.30650        1.20300       -1.27640
| 23> C         -0.94740        1.34780       -1.25280
| 24> C         -0.13810        0.52510       -0.45370
| 25> C          1.27010        0.60840       -0.37510
| 26> C          1.97440       -0.24100        0.43220
| 27> C          3.41400       -0.15410        0.51230
| 28> N          4.13550        0.72660       -0.14420
| 29> C          5.42960        0.47250        0.20380
| 30> C          6.61000        1.09780       -0.19030
| 31> C          7.79230        0.61980        0.33000
| 32> C          7.82310       -0.45530        1.22370
| 33> C          6.66850       -1.09120        1.63080
| 34> C          5.47290       -0.61740        1.11380
| 35> N          4.17210       -0.98910        1.28630
| 36> C          1.27570       -1.24620        1.22220
| 37> O          1.80080       -2.05190        1.96550
| 38> O         -0.07990       -1.29110        1.12290
| 39> C         -0.78570       -0.45320        0.32350
| 40> C         -2.16100       -0.59690        0.31240
| 41> H         -5.82200       -1.51070        2.08350
| 42> H         -5.96020        0.20030        1.67140
| 43> H         -4.40520       -0.45840        2.17180
| 44> H         -5.91620       -1.21230       -0.38130
| 45> H         -4.37230       -1.90330        0.10310
| 46> H         -4.76340        2.02720       -1.14250
| 47> H         -6.14280        1.03090       -0.70010
| 48> H         -5.84560       -0.35020       -2.74970
| 49> H         -4.44230        0.60850       -3.20990
| 50> H         -6.04430        1.35450       -3.16240
| 51> H         -2.87500        1.84980       -1.92280
| 52> H         -0.47230        2.10160       -1.86230
| 53> H          1.80920        1.34470       -0.95160
| 54> H          6.58540        1.92670       -0.87970
| 55> H          8.72530        1.08330        0.04380
| 56> H          8.77620       -0.79370        1.60290
| 57> H          6.69150       -1.92120        2.32110
| 58> H          3.77900       -1.72240        1.86020
| 59> H         -2.57410       -1.35710        0.95190
| 60> *
| 61>
| 62>
| 63> $new_job
| 64> ! wb97x-d3 aug-cc-PVTZ RIJCOSX SP
| 65> %maxcore 4000
| 66> %basis
| 67>  AuxJ "aug-cc-PVTZ/JK"
| 68>  AuxC "aug-cc-PVTZ/C"
| 69>  newGTO H "cc-PVTZ" end
| 70>  newAuxJGTO H "cc-PVTZ/JK" end
| 71>  newAuxCGTO H "cc-PVTZ/C" end
| 72> end
| 73> %cpcm
| 74>  SMD true
| 75>  SMDsolvent "ethanol"
| 76> end
| 77> %pal nprocs 4 end
| 78> %tddft
| 79>  nroots 10
| 80>  maxdim 7
| 81> end
| 82> * xyzfile 0 1
| 83>
| 84>                          ****END OF INPUT****
 Total Charge           Charge          ....    0
 Multiplicity           Mult            ....    1
 Number of Electrons    NEL             ....  176
Dispersion correction           -0.018463576
FINAL SINGLE POINT ENERGY     -1088.416564551266
Dispersion correction            ... done
Dispersion correction           -0.018465677
FINAL SINGLE POINT ENERGY     -1088.418470650292
Dispersion correction            ... done
Dispersion correction           -0.018455514
FINAL SINGLE POINT ENERGY     -1088.418879648915
Dispersion correction            ... done
FINAL SINGLE POINT ENERGY     -1088.418934510409
FINAL SINGLE POINT ENERGY     -1088.418921728315
FINAL SINGLE POINT ENERGY     -1088.418931411859
FINAL SINGLE POINT ENERGY     -1088.418918005008
Dispersion correction           -0.018467585
FINAL SINGLE POINT ENERGY     -1088.418929626665
Dispersion correction            ... done
Dispersion correction           -0.018470919
FINAL SINGLE POINT ENERGY     -1088.418921661119
Dispersion correction            ... done
                    ***********************HURRAY********************
Dispersion correction           -0.018471571
FINAL SINGLE POINT ENERGY     -1088.418918765013

CARTESIAN COORDINATES (ANGSTROEM)
---------------------------------
  C     -5.366134   -0.624067    1.631692
  C     -5.005136   -0.986508    0.199560
  N     -4.322481    0.090441   -0.506568
  C     -5.175908    0.985358   -1.279556
  C     -5.326831    0.557480   -2.731140
  C     -2.978266    0.236058   -0.460237
  C     -2.321796    1.255294   -1.214397
  C     -0.965772    1.401514   -1.175686
  C     -0.158442    0.548992   -0.399792
  C      1.246371    0.628980   -0.312961
  C      1.965776   -0.233987    0.455934
  C      3.423730   -0.140708    0.522473
  N      4.137285    0.757470   -0.119371
  C      5.448548    0.482349    0.215037
  C      6.628909    1.112446   -0.179609
  C      7.820903    0.616722    0.312004
  C      7.854144   -0.484729    1.181121
  C      6.694796   -1.120823    1.583647
  C      5.499601   -0.616957    1.084373
  N      4.189621   -0.988171    1.260552
  C      1.270549   -1.258992    1.202889
  O      1.779492   -2.102810    1.918742
  O     -0.085976   -1.298063    1.109858
  C     -0.811876   -0.442038    0.335503
  C     -2.176248   -0.611233    0.329850
  H     -5.889776   -1.452697    2.110759
  H     -6.019118    0.250263    1.656111
  H     -4.475775   -0.398742    2.220909
  H     -5.909471   -1.216527   -0.364553
  H     -4.395450   -1.889189    0.169679
  H     -4.798781    2.004942   -1.210862
  H     -6.151400    0.993797   -0.792622
  H     -5.758604   -0.442747   -2.796386
  H     -4.363819    0.545564   -3.243925
  H     -5.986222    1.246175   -3.261688
  H     -2.897428    1.917679   -1.841890
  H     -0.491633    2.182083   -1.758299
  H      1.765797    1.396499   -0.874234
  H      6.606014    1.963339   -0.849273
  H      8.753104    1.084936    0.021340
  H      8.809190   -0.843764    1.543325
  H      6.716340   -1.971792    2.252044
  H      3.818611   -1.743278    1.816655
  H     -2.596538   -1.390461    0.946192

 Multiplicity           Mult            ....    1
 Number of Electrons    NEL             ....  176
 Basis Dimension        Dim             .... 1416

ORBITAL ENERGIES
----------------

  NO   OCC          E(Eh)            E(eV)
   0   2.0000     -19.313758      -525.5541
   1   2.0000     -19.228765      -523.2413
   2   2.0000     -14.470129      -393.7522
   3   2.0000     -14.451937      -393.2572
   4   2.0000     -14.409660      -392.1068
   5   2.0000     -10.429496      -283.8010
   6   2.0000     -10.365640      -282.0634
   7   2.0000     -10.360242      -281.9165
   8   2.0000     -10.345800      -281.5235
   9   2.0000     -10.321142      -280.8526
  10   2.0000     -10.315179      -280.6903
  11   2.0000     -10.308119      -280.4982
  12   2.0000     -10.305840      -280.4362
  13   2.0000     -10.305549      -280.4282
  14   2.0000     -10.303017      -280.3594
  15   2.0000     -10.297400      -280.2065
  16   2.0000     -10.292536      -280.0741
  17   2.0000     -10.283781      -279.8359
  18   2.0000     -10.281249      -279.7670
  19   2.0000     -10.279371      -279.7159
  20   2.0000     -10.279245      -279.7125
  21   2.0000     -10.278166      -279.6831
  22   2.0000     -10.276155      -279.6284
  23   2.0000     -10.261313      -279.2245
  24   2.0000     -10.261289      -279.2239
  25   2.0000      -1.255539       -34.1649
  26   2.0000      -1.160600       -31.5815
  27   2.0000      -1.142815       -31.0976
  28   2.0000      -1.082892       -29.4670
  29   2.0000      -0.997852       -27.1529
  30   2.0000      -0.992633       -27.0109
  31   2.0000      -0.973339       -26.4859
  32   2.0000      -0.950623       -25.8678
  33   2.0000      -0.894293       -24.3349
  34   2.0000      -0.892898       -24.2970
  35   2.0000      -0.878496       -23.9051
  36   2.0000      -0.862129       -23.4597
  37   2.0000      -0.855689       -23.2845
  38   2.0000      -0.830719       -22.6050
  39   2.0000      -0.785713       -21.3803
  40   2.0000      -0.772921       -21.0323
  41   2.0000      -0.755665       -20.5627
  42   2.0000      -0.739565       -20.1246
  43   2.0000      -0.734416       -19.9845
  44   2.0000      -0.724284       -19.7088
  45   2.0000      -0.711467       -19.3600
  46   2.0000      -0.698769       -19.0145
  47   2.0000      -0.658013       -17.9054
  48   2.0000      -0.647670       -17.6240
  49   2.0000      -0.626156       -17.0386
  50   2.0000      -0.623598       -16.9690
  51   2.0000      -0.613852       -16.7038
  52   2.0000      -0.600241       -16.3334
  53   2.0000      -0.590299       -16.0629
  54   2.0000      -0.584205       -15.8970
  55   2.0000      -0.569510       -15.4972
  56   2.0000      -0.561772       -15.2866
  57   2.0000      -0.558312       -15.1925
  58   2.0000      -0.554438       -15.0870
  59   2.0000      -0.545097       -14.8328
  60   2.0000      -0.539983       -14.6937
  61   2.0000      -0.532734       -14.4964
  62   2.0000      -0.529055       -14.3963
  63   2.0000      -0.527084       -14.3427
  64   2.0000      -0.520044       -14.1511
  65   2.0000      -0.515021       -14.0144
  66   2.0000      -0.501713       -13.6523
  67   2.0000      -0.495776       -13.4908
  68   2.0000      -0.484974       -13.1968
  69   2.0000      -0.476452       -12.9649
  70   2.0000      -0.469593       -12.7783
  71   2.0000      -0.464764       -12.6469
  72   2.0000      -0.458670       -12.4811
  73   2.0000      -0.456286       -12.4162
  74   2.0000      -0.449903       -12.2425
  75   2.0000      -0.448843       -12.2136
  76   2.0000      -0.442398       -12.0383
  77   2.0000      -0.438369       -11.9286
  78   2.0000      -0.430704       -11.7200
  79   2.0000      -0.423225       -11.5165
  80   2.0000      -0.408095       -11.1048
  81   2.0000      -0.395259       -10.7555
  82   2.0000      -0.381305       -10.3758
  83   2.0000      -0.372355       -10.1323
  84   2.0000      -0.340612        -9.2685
  85   2.0000      -0.317850        -8.6491
  86   2.0000      -0.312777        -8.5111
  87   2.0000      -0.267726        -7.2852
  88   0.0000      -0.008837        -0.2405
  89   0.0000       0.045720         1.2441
  90   0.0000       0.049008         1.3336
  91   0.0000       0.051381         1.3982
  92   0.0000       0.053279         1.4498

MULLIKEN ATOMIC CHARGES
-----------------------
   0 C :   -0.678032
   1 C :   -0.436347
   2 N :    0.236666
   3 C :   -0.408931
   4 C :   -0.677379
   5 C :    1.393664
   6 C :   -0.756891
   7 C :   -1.399152
   8 C :    1.433374
   9 C :   -1.104783
  10 C :    2.094581
  11 C :   -0.444419
  12 N :   -0.978716
  13 C :    1.653599
  14 C :   -0.955125
  15 C :   -0.402827
  16 C :   -0.311074
  17 C :   -0.851719
  18 C :    0.521237
  19 N :   -0.075530
  20 C :    0.402056
  21 O :   -1.196564
  22 O :   -0.655028
  23 C :    0.686712
  24 C :   -0.928391
  25 H :    0.187731
  26 H :    0.202099
  27 H :    0.217020
  28 H :    0.261957
  29 H :    0.216739
  30 H :    0.227864
  31 H :    0.266069
  32 H :    0.201905
  33 H :    0.221997
  34 H :    0.178295
  35 H :    0.177376
  36 H :    0.141122
  37 H :    0.100487
  38 H :    0.236554
  39 H :    0.223853
  40 H :    0.229997
  41 H :    0.240627
  42 H :    0.120641
  43 H :    0.186685
Sum of atomic charges:   -0.0000000

LOEWDIN ATOMIC CHARGES
----------------------
   0 C :   -0.065838
   1 C :   -0.396426
   2 N :   -0.075613
   3 C :   -0.398356
   4 C :   -0.066991
   5 C :   -0.452077
   6 C :   -0.031847
   7 C :   -0.015344
   8 C :   -0.298363
   9 C :    0.084353
  10 C :   -0.198716
  11 C :   -0.524269
  12 N :    0.362232
  13 C :   -0.470614
  14 C :   -0.037903
  15 C :   -0.152053
  16 C :   -0.150784
  17 C :   -0.019145
  18 C :   -0.405010
  19 N :    0.423120
  20 C :   -0.849728
  21 O :    0.397600
  22 O :    0.615357
  23 C :   -0.475003
  24 C :    0.056007
  25 H :    0.100773
  26 H :    0.117431
  27 H :    0.121947
  28 H :    0.192170
  29 H :    0.188797
  30 H :    0.187145
  31 H :    0.192091
  32 H :    0.117471
  33 H :    0.122212
  34 H :    0.100859
  35 H :    0.199096
  36 H :    0.198221
  37 H :    0.230416
  38 H :    0.180112
  39 H :    0.169065
  40 H :    0.169502
  41 H :    0.179542
  42 H :    0.165068
  43 H :    0.213492

  Mayer bond orders larger than 0.100000
B(  0-C ,  1-C ) :   0.7086 B(  0-C , 25-H ) :   0.9893 B(  0-C , 26-H ) :   0.9775
B(  0-C , 27-H ) :   0.9653 B(  1-C ,  2-N ) :   0.8191 B(  1-C , 23-C ) :  -0.1316
B(  1-C , 28-H ) :   0.9508 B(  1-C , 29-H ) :   0.9900 B(  2-N ,  3-C ) :   0.9367
B(  2-N ,  5-C ) :   0.5603 B(  2-N ,  6-C ) :  -0.1486 B(  2-N , 24-C ) :  -0.2868
B(  3-C ,  4-C ) :   0.6863 B(  3-C ,  5-C ) :  -0.2084 B(  3-C ,  6-C ) :   0.1849
B(  3-C , 30-H ) :   0.9811 B(  3-C , 31-H ) :   0.9345 B(  4-C , 32-H ) :   0.9778
B(  4-C , 33-H ) :   0.9638 B(  4-C , 34-H ) :   0.9940 B(  5-C ,  6-C ) :   0.4437
B(  5-C ,  7-C ) :  -0.2188 B(  5-C ,  8-C ) :  -0.2876 B(  5-C , 22-O ) :  -0.1505
B(  5-C , 24-C ) :   0.4730 B(  5-C , 30-H ) :  -0.1279 B(  5-C , 35-H ) :  -0.1736
B(  5-C , 43-H ) :  -0.1495 B(  6-C ,  7-C ) :   1.4575 B(  6-C ,  8-C ) :   0.2467
B(  6-C , 24-C ) :  -0.1379 B(  6-C , 30-H ) :   0.1198 B(  6-C , 35-H ) :   1.0358
B(  7-C ,  8-C ) :  -0.1129 B(  7-C ,  9-C ) :   0.2379 B(  7-C , 36-H ) :   1.2026
B(  8-C ,  9-C ) :   1.0431 B(  8-C , 10-C ) :  -0.2133 B(  8-C , 11-C ) :   0.1224
B(  8-C , 12-N ) :   0.1716 B(  8-C , 20-C ) :  -0.4734 B(  8-C , 21-O ) :  -0.2021
B(  8-C , 23-C ) :   1.2032 B(  8-C , 24-C ) :  -0.1549 B(  8-C , 36-H ) :  -0.1853
B(  9-C , 10-C ) :   0.7695 B(  9-C , 12-N ) :  -0.2362 B(  9-C , 18-C ) :   0.1255
B(  9-C , 21-O ) :   0.1061 B(  9-C , 23-C ) :   0.5031 B(  9-C , 37-H ) :   1.2232
B( 10-C , 11-C ) :  -0.1713 B( 10-C , 12-N ) :  -0.2713 B( 10-C , 13-C ) :   0.1266
B( 10-C , 14-C ) :  -0.1630 B( 10-C , 17-C ) :  -0.1262 B( 10-C , 18-C ) :   0.1998
B( 10-C , 19-N ) :  -0.1282 B( 10-C , 20-C ) :   0.5871 B( 10-C , 21-O ) :  -0.3507
B( 10-C , 23-C ) :  -0.3772 B( 10-C , 37-H ) :  -0.2145 B( 11-C , 12-N ) :   1.3822
B( 11-C , 13-C ) :  -0.2191 B( 11-C , 14-C ) :   0.2788 B( 11-C , 17-C ) :   0.2754
B( 11-C , 19-N ) :   0.5839 B( 11-C , 20-C ) :   0.1902 B( 11-C , 21-O ) :   0.3498
B( 12-N , 13-C ) :   0.2098 B( 12-N , 14-C ) :   0.3210 B( 13-C , 14-C ) :  -0.1361
B( 13-C , 15-C ) :  -0.2518 B( 13-C , 16-C ) :  -0.1064 B( 13-C , 18-C ) :   0.9084
B( 14-C , 15-C ) :   1.3487 B( 14-C , 16-C ) :   0.1690 B( 14-C , 18-C ) :   0.3115
B( 14-C , 19-N ) :  -0.1093 B( 14-C , 38-H ) :   0.9680 B( 15-C , 16-C ) :   1.1365
B( 15-C , 17-C ) :   0.1006 B( 15-C , 39-H ) :   0.9794 B( 16-C , 17-C ) :   1.2709
B( 16-C , 18-C ) :  -0.2021 B( 16-C , 40-H ) :   0.9661 B( 17-C , 18-C ) :   0.4696
B( 17-C , 19-N ) :  -0.1166 B( 17-C , 41-H ) :   0.9400 B( 18-C , 19-N ) :   0.7805
B( 18-C , 24-C ) :  -0.1018 B( 19-N , 42-H ) :   1.1441 B( 20-C , 21-O ) :   0.8312
B( 20-C , 22-O ) :   0.9985 B( 20-C , 23-C ) :   0.5256 B( 20-C , 24-C ) :   0.1373
B( 21-O , 22-O ) :  -0.1268 B( 21-O , 24-C ) :   0.1697 B( 22-O , 23-C ) :   0.2017
B( 22-O , 24-C ) :   0.3927 B( 23-C , 24-C ) :   0.6367 B( 24-C , 43-H ) :   1.0638

-----------------------------------------------------------------------------
         ABSORPTION SPECTRUM VIA TRANSITION ELECTRIC DIPOLE MOMENTS
-----------------------------------------------------------------------------
State   Energy    Wavelength  fosc         T2        TX        TY        TZ
        (cm-1)      (nm)                 (au**2)    (au)      (au)      (au)
-----------------------------------------------------------------------------
   1   28220.9    354.3   1.494891806  17.43872  -4.07305   0.45929  -0.79877
   2   37212.8    268.7   0.069643365   0.61612  -0.55207  -0.47415   0.29414
   3   39724.2    251.7   0.119186545   0.98775   0.95483   0.24216  -0.13194
   4   41552.2    240.7   0.077642767   0.61515  -0.50165   0.45198  -0.39901
   5   42377.6    236.0   0.003424254   0.02660  -0.13371   0.07846  -0.05066
   6   43681.1    228.9   0.373905610   2.81802  -1.30549  -0.89961   0.55174
   7   44393.7    225.3   0.008541994   0.06335  -0.09114   0.16843   0.16330
   8   45813.2    218.3   0.000855725   0.00615  -0.07735   0.01259  -0.00277
   9   45982.2    217.5   0.105385140   0.75451  -0.86081   0.03487  -0.11091
  10   47411.3    210.9   0.005414208   0.03759  -0.03402   0.15276   0.11446

Dispersion correction           -0.018471571
FINAL SINGLE POINT ENERGY     -1088.290335030484

DIPOLE MOMENT
-------------
                                X             Y             Z
Electronic contribution:     31.90042      -3.48941       6.60250
Nuclear contribution   :    -36.29203       4.10762      -7.62663
                        -----------------------------------------
Total Dipole Moment    :     -4.39161       0.61821      -1.02413
                        -----------------------------------------
Magnitude (a.u.)       :      4.55162
Magnitude (Debye)      :     11.56930

Rotational constants in cm-1:     0.026371     0.002657     0.002451
Rotational constants in MHz :   790.585532    79.667047    73.466330

                             ****ORCA TERMINATED NORMALLY****
TOTAL RUN TIME: 0 days 11 hours 7 minutes 15 seconds 864 msec
