                         Program Version 5.0.2 -  RELEASE  -
|  1> ! x3lyp aug-cc-PVTZ RIJCOSX Opt
|  2> %maxcore 4000
|  3> %basis
|  4>  AuxJ "aug-cc-PVTZ/JK"
|  5>  AuxC "aug-cc-PVTZ/C"
|  6>  newGTO H "cc-PVTZ" end
|  7>  newAuxJGTO H "cc-PVTZ/JK" end
|  8>  newAuxCGTO H "cc-PVTZ/C" end
|  9> end
| 10> %cpcm
| 11>  SMD true
| 12>  SMDsolvent "ethanol"
| 13> end
| 14> %pal nprocs 4 end
| 15> * xyz 0 1
| 16> C         -5.31350       -0.67230        1.61530
| 17> C         -4.98860       -1.00350        0.15820
| 18> N         -4.31760        0.08600       -0.51830
| 19> C         -5.17770        1.01910       -1.21330
| 20> C         -5.38980        0.63450       -2.67850
| 21> C         -2.96420        0.22450       -0.49050
| 22> C         -2.30650        1.20300       -1.27640
| 23> C         -0.94740        1.34780       -1.25280
| 24> C         -0.13810        0.52510       -0.45370
| 25> C          1.27010        0.60840       -0.37510
| 26> C          1.97440       -0.24100        0.43220
| 27> C          3.41400       -0.15410        0.51230
| 28> N          4.13550        0.72660       -0.14420
| 29> C          5.42960        0.47250        0.20380
| 30> C          6.61000        1.09780       -0.19030
| 31> C          7.79230        0.61980        0.33000
| 32> C          7.82310       -0.45530        1.22370
| 33> C          6.66850       -1.09120        1.63080
| 34> C          5.47290       -0.61740        1.11380
| 35> N          4.17210       -0.98910        1.28630
| 36> C          1.27570       -1.24620        1.22220
| 37> O          1.80080       -2.05190        1.96550
| 38> O         -0.07990       -1.29110        1.12290
| 39> C         -0.78570       -0.45320        0.32350
| 40> C         -2.16100       -0.59690        0.31240
| 41> H         -5.82200       -1.51070        2.08350
| 42> H         -5.96020        0.20030        1.67140
| 43> H         -4.40520       -0.45840        2.17180
| 44> H         -5.91620       -1.21230       -0.38130
| 45> H         -4.37230       -1.90330        0.10310
| 46> H         -4.76340        2.02720       -1.14250
| 47> H         -6.14280        1.03090       -0.70010
| 48> H         -5.84560       -0.35020       -2.74970
| 49> H         -4.44230        0.60850       -3.20990
| 50> H         -6.04430        1.35450       -3.16240
| 51> H         -2.87500        1.84980       -1.92280
| 52> H         -0.47230        2.10160       -1.86230
| 53> H          1.80920        1.34470       -0.95160
| 54> H          6.58540        1.92670       -0.87970
| 55> H          8.72530        1.08330        0.04380
| 56> H          8.77620       -0.79370        1.60290
| 57> H          6.69150       -1.92120        2.32110
| 58> H          3.77900       -1.72240        1.86020
| 59> H         -2.57410       -1.35710        0.95190
| 60> *
| 61>
| 62>
| 63> $new_job
| 64> ! x3lyp aug-cc-PVTZ RIJCOSX SP
| 65> %maxcore 4000
| 66> %basis
| 67>  AuxJ "aug-cc-PVTZ/JK"
| 68>  AuxC "aug-cc-PVTZ/C"
| 69>  newGTO H "cc-PVTZ" end
| 70>  newAuxJGTO H "cc-PVTZ/JK" end
| 71>  newAuxCGTO H "cc-PVTZ/C" end
| 72> end
| 73> %cpcm
| 74>  SMD true
| 75>  SMDsolvent "ethanol"
| 76> end
| 77> %pal nprocs 4 end
| 78> %tddft
| 79>  nroots 10
| 80>  maxdim 7
| 81> end
| 82> * xyzfile 0 1
| 83>
| 84>                          ****END OF INPUT****
 Total Charge           Charge          ....    0
 Multiplicity           Mult            ....    1
 Number of Electrons    NEL             ....  176
FINAL SINGLE POINT ENERGY     -1087.799422562694
FINAL SINGLE POINT ENERGY     -1087.801928682840
FINAL SINGLE POINT ENERGY     -1087.802391814480
FINAL SINGLE POINT ENERGY     -1087.802467248040
FINAL SINGLE POINT ENERGY     -1087.802464196375
FINAL SINGLE POINT ENERGY     -1087.802486484117
                    ***********************HURRAY********************
FINAL SINGLE POINT ENERGY     -1087.802487251093

CARTESIAN COORDINATES (ANGSTROEM)
---------------------------------
  C     -5.409508   -0.700397    1.595440
  C     -5.008494   -1.017773    0.158755
  N     -4.322235    0.085202   -0.518049
  C     -5.187430    1.013223   -1.251681
  C     -5.393735    0.632431   -2.713671
  C     -2.975497    0.233570   -0.467554
  C     -2.313178    1.248203   -1.228445
  C     -0.954127    1.391334   -1.191896
  C     -0.143537    0.546451   -0.403049
  C      1.255127    0.620988   -0.320824
  C      1.985068   -0.232960    0.471119
  C      3.437615   -0.143565    0.526230
  N      4.164395    0.715250   -0.169111
  C      5.473643    0.453864    0.177997
  C      6.658826    1.055767   -0.251366
  C      7.853244    0.584419    0.270904
  C      7.882659   -0.465673    1.204462
  C      6.716672   -1.077421    1.642632
  C      5.521539   -0.600717    1.114977
  N      4.208743   -0.955218    1.312105
  C      1.291994   -1.231173    1.249379
  O      1.794464   -2.053132    2.004127
  O     -0.076558   -1.280618    1.144856
  C     -0.806547   -0.439787    0.347713
  C     -2.170198   -0.609756    0.334506
  H     -5.937926   -1.552105    2.028001
  H     -6.075180    0.163514    1.633247
  H     -4.539012   -0.489078    2.217330
  H     -5.898698   -1.245841   -0.427524
  H     -4.384118   -1.908995    0.121793
  H     -4.790125    2.023321   -1.169913
  H     -6.147840    1.022827   -0.736552
  H     -5.837067   -0.360868   -2.800423
  H     -4.452343    0.635695   -3.264037
  H     -6.068992    1.346241   -3.189429
  H     -2.883941    1.905613   -1.863597
  H     -0.479490    2.161364   -1.786418
  H      1.774898    1.372351   -0.900487
  H      6.639896    1.865397   -0.969441
  H      8.786245    1.033701   -0.043331
  H      8.835777   -0.803848    1.588956
  H      6.737638   -1.885997    2.360927
  H      3.831212   -1.675230    1.911251
  H     -2.593978   -1.380472    0.957291

 Multiplicity           Mult            ....    1
 Number of Electrons    NEL             ....  176
 Basis Dimension        Dim             .... 1416

ORBITAL ENERGIES
----------------

  NO   OCC          E(Eh)            E(eV)
   0   2.0000     -19.233104      -523.3594
   1   2.0000     -19.152000      -521.1524
   2   2.0000     -14.388202      -391.5229
   3   2.0000     -14.375110      -391.1666
   4   2.0000     -14.327939      -389.8830
   5   2.0000     -10.339604      -281.3549
   6   2.0000     -10.278290      -279.6865
   7   2.0000     -10.272355      -279.5250
   8   2.0000     -10.259210      -279.1673
   9   2.0000     -10.231021      -278.4002
  10   2.0000     -10.230063      -278.3742
  11   2.0000     -10.223023      -278.1826
  12   2.0000     -10.222925      -278.1799
  13   2.0000     -10.222706      -278.1740
  14   2.0000     -10.218832      -278.0686
  15   2.0000     -10.210944      -277.8539
  16   2.0000     -10.210394      -277.8390
  17   2.0000     -10.198540      -277.5164
  18   2.0000     -10.198394      -277.5124
  19   2.0000     -10.197315      -277.4830
  20   2.0000     -10.193784      -277.3870
  21   2.0000     -10.193079      -277.3678
  22   2.0000     -10.191301      -277.3194
  23   2.0000     -10.178429      -276.9691
  24   2.0000     -10.178407      -276.9685
  25   2.0000      -1.135487       -30.8982
  26   2.0000      -1.045637       -28.4532
  27   2.0000      -1.025078       -27.8938
  28   2.0000      -0.968585       -26.3565
  29   2.0000      -0.884673       -24.0732
  30   2.0000      -0.876171       -23.8418
  31   2.0000      -0.856614       -23.3097
  32   2.0000      -0.834389       -22.7049
  33   2.0000      -0.780921       -21.2499
  34   2.0000      -0.780032       -21.2257
  35   2.0000      -0.765808       -20.8387
  36   2.0000      -0.749479       -20.3944
  37   2.0000      -0.743639       -20.2354
  38   2.0000      -0.720538       -19.6068
  39   2.0000      -0.676743       -18.4151
  40   2.0000      -0.664249       -18.0751
  41   2.0000      -0.646932       -17.6039
  42   2.0000      -0.632570       -17.2131
  43   2.0000      -0.627224       -17.0676
  44   2.0000      -0.618707       -16.8359
  45   2.0000      -0.605017       -16.4634
  46   2.0000      -0.593794       -16.1579
  47   2.0000      -0.553967       -15.0742
  48   2.0000      -0.545418       -14.8416
  49   2.0000      -0.525491       -14.2993
  50   2.0000      -0.521383       -14.1875
  51   2.0000      -0.513418       -13.9708
  52   2.0000      -0.491023       -13.3614
  53   2.0000      -0.490524       -13.3478
  54   2.0000      -0.483573       -13.1587
  55   2.0000      -0.471586       -12.8325
  56   2.0000      -0.458482       -12.4759
  57   2.0000      -0.454874       -12.3777
  58   2.0000      -0.453384       -12.3372
  59   2.0000      -0.445703       -12.1282
  60   2.0000      -0.443032       -12.0555
  61   2.0000      -0.436482       -11.8773
  62   2.0000      -0.434059       -11.8113
  63   2.0000      -0.430669       -11.7191
  64   2.0000      -0.426102       -11.5948
  65   2.0000      -0.420120       -11.4320
  66   2.0000      -0.406055       -11.0493
  67   2.0000      -0.396738       -10.7958
  68   2.0000      -0.390924       -10.6376
  69   2.0000      -0.384642       -10.4666
  70   2.0000      -0.373084       -10.1521
  71   2.0000      -0.368709       -10.0331
  72   2.0000      -0.367654       -10.0044
  73   2.0000      -0.365024        -9.9328
  74   2.0000      -0.357964        -9.7407
  75   2.0000      -0.353880        -9.6296
  76   2.0000      -0.348919        -9.4946
  77   2.0000      -0.348020        -9.4701
  78   2.0000      -0.338837        -9.2202
  79   2.0000      -0.332556        -9.0493
  80   2.0000      -0.314667        -8.5625
  81   2.0000      -0.301765        -8.2115
  82   2.0000      -0.287667        -7.8278
  83   2.0000      -0.283877        -7.7247
  84   2.0000      -0.256111        -6.9691
  85   2.0000      -0.236259        -6.4289
  86   2.0000      -0.231588        -6.3018
  87   2.0000      -0.195661        -5.3242
  88   0.0000      -0.073201        -1.9919
  89   0.0000      -0.024210        -0.6588
  90   0.0000      -0.010019        -0.2726
  91   0.0000      -0.000786        -0.0214
  92   0.0000       0.002916         0.0794

MULLIKEN ATOMIC CHARGES
-----------------------
   0 C :   -0.554946
   1 C :   -0.315366
   2 N :    0.242996
   3 C :   -0.306567
   4 C :   -0.564599
   5 C :    0.821193
   6 C :   -0.549262
   7 C :   -1.103667
   8 C :    1.505682
   9 C :   -0.972384
  10 C :    1.855947
  11 C :   -0.456503
  12 N :   -1.028542
  13 C :    1.639636
  14 C :   -0.821696
  15 C :   -0.372665
  16 C :   -0.320346
  17 C :   -0.776790
  18 C :    0.502657
  19 N :   -0.061931
  20 C :    0.470769
  21 O :   -1.117626
  22 O :   -0.643002
  23 C :    0.881223
  24 C :   -0.833972
  25 H :    0.159165
  26 H :    0.158872
  27 H :    0.162365
  28 H :    0.194059
  29 H :    0.156702
  30 H :    0.162693
  31 H :    0.192666
  32 H :    0.161543
  33 H :    0.166557
  34 H :    0.157622
  35 H :    0.115527
  36 H :    0.097494
  37 H :    0.049069
  38 H :    0.176261
  39 H :    0.191434
  40 H :    0.194197
  41 H :    0.188505
  42 H :    0.091545
  43 H :    0.103489
Sum of atomic charges:   -0.0000000

LOEWDIN ATOMIC CHARGES
----------------------
   0 C :   -0.067350
   1 C :   -0.388457
   2 N :   -0.056514
   3 C :   -0.390621
   4 C :   -0.068402
   5 C :   -0.441293
   6 C :   -0.028921
   7 C :   -0.015470
   8 C :   -0.297503
   9 C :    0.079873
  10 C :   -0.203507
  11 C :   -0.519455
  12 N :    0.362006
  13 C :   -0.466510
  14 C :   -0.039462
  15 C :   -0.153200
  16 C :   -0.151951
  17 C :   -0.021406
  18 C :   -0.399955
  19 N :    0.421789
  20 C :   -0.852102
  21 O :    0.389190
  22 O :    0.609355
  23 C :   -0.469544
  24 C :    0.058291
  25 H :    0.101843
  26 H :    0.116130
  27 H :    0.119130
  28 H :    0.190665
  29 H :    0.187339
  30 H :    0.186065
  31 H :    0.190733
  32 H :    0.116057
  33 H :    0.119287
  34 H :    0.101762
  35 H :    0.196648
  36 H :    0.195622
  37 H :    0.225679
  38 H :    0.177594
  39 H :    0.167130
  40 H :    0.167377
  41 H :    0.177394
  42 H :    0.163859
  43 H :    0.210807

  Mayer bond orders larger than 0.100000
B(  0-C ,  1-C ) :   0.7935 B(  0-C , 25-H ) :   0.9891 B(  0-C , 26-H ) :   0.9853
B(  0-C , 27-H ) :   0.9867 B(  1-C ,  2-N ) :   0.9098 B(  1-C , 28-H ) :   0.9770
B(  1-C , 29-H ) :   0.9884 B(  2-N ,  3-C ) :   0.9703 B(  2-N ,  5-C ) :   0.4741
B(  2-N ,  6-C ) :  -0.1871 B(  2-N , 23-C ) :   0.1394 B(  2-N , 24-C ) :  -0.2254
B(  3-C ,  4-C ) :   0.7799 B(  3-C , 30-H ) :   0.9882 B(  3-C , 31-H ) :   0.9701
B(  4-C ,  5-C ) :   0.1403 B(  4-C ,  6-C ) :  -0.1038 B(  4-C , 32-H ) :   0.9836
B(  4-C , 33-H ) :   0.9845 B(  4-C , 34-H ) :   0.9913 B(  5-C ,  6-C ) :   0.7872
B(  5-C ,  7-C ) :  -0.1107 B(  5-C ,  8-C ) :  -0.1222 B(  5-C ,  9-C ) :   0.1226
B(  5-C , 24-C ) :   0.5864 B(  6-C ,  7-C ) :   1.2505 B(  6-C ,  8-C ) :   0.1681
B(  6-C , 35-H ) :   1.0559 B(  7-C ,  8-C ) :   0.1270 B(  7-C ,  9-C ) :   0.2420
B(  7-C , 23-C ) :  -0.1523 B(  7-C , 36-H ) :   1.1642 B(  8-C ,  9-C ) :   0.6060
B(  8-C , 10-C ) :  -0.1041 B(  8-C , 11-C ) :   0.1807 B(  8-C , 12-N ) :   0.2001
B(  8-C , 20-C ) :  -0.2971 B(  8-C , 21-O ) :  -0.1755 B(  8-C , 23-C ) :   1.0333
B(  8-C , 36-H ) :  -0.1365 B(  9-C , 10-C ) :   0.7717 B(  9-C , 12-N ) :  -0.4313
B(  9-C , 20-C ) :  -0.1311 B(  9-C , 23-C ) :   0.2833 B(  9-C , 24-C ) :   0.1303
B(  9-C , 37-H ) :   1.2594 B( 10-C , 11-C ) :  -0.3979 B( 10-C , 14-C ) :  -0.1178
B( 10-C , 18-C ) :   0.1575 B( 10-C , 19-N ) :  -0.1025 B( 10-C , 20-C ) :   0.5705
B( 10-C , 21-O ) :  -0.2148 B( 10-C , 22-O ) :   0.1119 B( 10-C , 23-C ) :  -0.2248
B( 10-C , 37-H ) :  -0.1975 B( 11-C , 12-N ) :   1.0355 B( 11-C , 13-C ) :  -0.1229
B( 11-C , 14-C ) :   0.1854 B( 11-C , 15-C ) :   0.1197 B( 11-C , 17-C ) :   0.1738
B( 11-C , 19-N ) :   0.6612 B( 11-C , 20-C ) :   0.1886 B( 11-C , 21-O ) :   0.3722
B( 12-N , 14-C ) :   0.2649 B( 12-N , 18-C ) :   0.1724 B( 13-C , 14-C ) :   0.2107
B( 13-C , 15-C ) :  -0.1946 B( 13-C , 16-C ) :  -0.1178 B( 13-C , 17-C ) :  -0.1097
B( 13-C , 18-C ) :   0.9758 B( 14-C , 15-C ) :   1.3153 B( 14-C , 16-C ) :   0.1317
B( 14-C , 18-C ) :   0.1577 B( 14-C , 38-H ) :   0.9952 B( 15-C , 16-C ) :   1.2165
B( 15-C , 17-C ) :   0.1039 B( 15-C , 39-H ) :   0.9656 B( 16-C , 17-C ) :   1.3000
B( 16-C , 18-C ) :  -0.1655 B( 16-C , 40-H ) :   0.9588 B( 17-C , 18-C ) :   0.7321
B( 17-C , 19-N ) :  -0.1159 B( 17-C , 41-H ) :   0.9695 B( 18-C , 19-N ) :   0.7451
B( 19-N , 42-H ) :   1.1310 B( 20-C , 21-O ) :   0.7757 B( 20-C , 22-O ) :   0.9161
B( 20-C , 23-C ) :   0.4271 B( 21-O , 24-C ) :   0.1666 B( 22-O , 24-C ) :   0.4268
B( 23-C , 24-C ) :   0.4475 B( 24-C , 43-H ) :   1.1402

-----------------------------------------------------------------------------
         ABSORPTION SPECTRUM VIA TRANSITION ELECTRIC DIPOLE MOMENTS
-----------------------------------------------------------------------------
State   Energy    Wavelength  fosc         T2        TX        TY        TZ
        (cm-1)      (nm)                 (au**2)    (au)      (au)      (au)
-----------------------------------------------------------------------------
   1   24546.8    407.4   1.489183347  19.97230   4.37652  -0.41543   0.80363
   2   30762.7    325.1   0.041441207   0.44349   0.57173  -0.21886   0.26215
   3   32222.0    310.3   0.002520657   0.02575   0.00810   0.13296  -0.08950
   4   33229.7    300.9   0.123578743   1.22431   0.93080   0.51170  -0.30999
   5   34284.1    291.7   0.314287186   3.01794  -1.69982  -0.33448   0.12908
   6   36206.8    276.2   0.026284243   0.23899   0.25926  -0.33407   0.24530
   7   37381.4    267.5   0.006999425   0.06164   0.02774  -0.24673  -0.00002
   8   39012.7    256.3   0.009287429   0.07837   0.11538  -0.24971   0.05203
   9   39489.2    253.2   0.111744308   0.93159  -0.95624  -0.12022  -0.05223
  10   39772.0    251.4   0.000981669   0.00813   0.01669  -0.06029  -0.06490

FINAL SINGLE POINT ENERGY     -1087.690643674604

DIPOLE MOMENT
-------------
                                X             Y             Z
Electronic contribution:     31.76448      -3.38114       6.66430
Nuclear contribution   :    -36.63483       4.08276      -7.76518
                        -----------------------------------------
Total Dipole Moment    :     -4.87035       0.70161      -1.10088
                        -----------------------------------------
Magnitude (a.u.)       :      5.04227
Magnitude (Debye)      :     12.81643

Rotational constants in cm-1:     0.026263     0.002639     0.002428
Rotational constants in MHz :   787.335935    79.101854    72.800454

                             ****ORCA TERMINATED NORMALLY****
TOTAL RUN TIME: 0 days 5 hours 16 minutes 53 seconds 342 msec
