                         Program Version 5.0.2 -  RELEASE  -
|  1> ! b3lyp aug-cc-PVTZ RIJCOSX Opt
|  2> %maxcore 4000
|  3> %basis
|  4>  AuxJ "aug-cc-PVTZ/JK"
|  5>  AuxC "aug-cc-PVTZ/C"
|  6>  newGTO H "cc-PVTZ" end
|  7>  newAuxJGTO H "cc-PVTZ/JK" end
|  8>  newAuxCGTO H "cc-PVTZ/C" end
|  9> end
| 10> %cpcm
| 11>  SMD true
| 12>  SMDsolvent "dichloromethane"
| 13> end
| 14> %pal nprocs 4 end
| 15> * xyz 0 1
| 16> C         -1.00590       -0.61600        2.10610
| 17> C         -0.82430       -0.80940        0.59740
| 18> C         -0.70850       -2.29480        0.24150
| 19> C          0.35590       -0.01940        0.07520
| 20> C         -0.04950        0.90770       -0.82140
| 21> C         -1.47290        0.86060       -1.00630
| 22> C         -2.32270        1.60350       -1.80920
| 23> C         -3.67690        1.31370       -1.76610
| 24> C         -4.16430        0.30930       -0.94260
| 25> C         -3.31160       -0.43630       -0.13640
| 26> C         -1.96300       -0.16070       -0.16770
| 27> S          1.35280        1.83120       -1.42690
| 28> O          1.59060        1.57500       -2.82150
| 29> O          1.30250        3.20400       -1.00210
| 30> C          2.48960        0.88190       -0.39640
| 31> C          3.85070        1.01580       -0.30260
| 32> C          4.54150        0.17220        0.56280
| 33> C          3.85550       -0.77500        1.30520
| 34> C          2.47840       -0.90500        1.20540
| 35> C          1.77630       -0.06850        0.34410
| 36> H         -1.08770        0.44300        2.33950
| 37> H         -0.16070       -1.02730        2.65140
| 38> H         -1.91260       -1.11600        2.43770
| 39> H         -1.61150       -2.81990        0.54310
| 40> H         -0.57990       -2.41280       -0.83180
| 41> H          0.14240       -2.74600        0.74480
| 42> H         -1.93030        2.38170       -2.44500
| 43> H         -4.36340        1.87620       -2.38110
| 44> H         -5.22420        0.10230       -0.92680
| 45> H         -3.70880       -1.21460        0.49870
| 46> H          4.36320        1.76090       -0.89060
| 47> H          5.61340        0.25730        0.65470
| 48> H          4.40100       -1.42460        1.97380
| 49> H          1.96480       -1.64980        1.79320
| 50> *
| 51>
| 52>
| 53> $new_job
| 54> ! b3lyp aug-cc-PVTZ RIJCOSX SP
| 55> %maxcore 4000
| 56> %basis
| 57>  AuxJ "aug-cc-PVTZ/JK"
| 58>  AuxC "aug-cc-PVTZ/C"
| 59>  newGTO H "cc-PVTZ" end
| 60>  newAuxJGTO H "cc-PVTZ/JK" end
| 61>  newAuxCGTO H "cc-PVTZ/C" end
| 62> end
| 63> %cpcm
| 64>  SMD true
| 65>  SMDsolvent "dichloromethane"
| 66> end
| 67> %pal nprocs 4 end
| 68> %tddft
| 69>  nroots 10
| 70>  maxdim 7
| 71> end
| 72> * xyzfile 0 1
| 73>
| 74>                          ****END OF INPUT****
 Total Charge           Charge          ....    0
 Multiplicity           Mult            ....    1
 Number of Electrons    NEL             ....  148
FINAL SINGLE POINT ENERGY     -1204.624607338241
FINAL SINGLE POINT ENERGY     -1204.627188991457
FINAL SINGLE POINT ENERGY     -1204.627841058912
FINAL SINGLE POINT ENERGY     -1204.627890355219
FINAL SINGLE POINT ENERGY     -1204.627896908611
                    ***********************HURRAY********************
FINAL SINGLE POINT ENERGY     -1204.627897274517

CARTESIAN COORDINATES (ANGSTROEM)
---------------------------------
  C     -1.025131   -0.657383    2.122380
  C     -0.841975   -0.826973    0.600945
  C     -0.728872   -2.323175    0.242051
  C      0.356083   -0.046309    0.090087
  C     -0.036394    0.875219   -0.811489
  C     -1.470875    0.862663   -1.020345
  C     -2.314839    1.618600   -1.827490
  C     -3.680836    1.350468   -1.782590
  C     -4.184048    0.351640   -0.950587
  C     -3.331891   -0.406439   -0.142917
  C     -1.972681   -0.151659   -0.177259
  S      1.348365    1.796790   -1.429703
  O      1.591767    1.521618   -2.848372
  O      1.282316    3.203992   -1.027164
  C      2.493008    0.871306   -0.388004
  C      3.855999    1.044486   -0.316170
  C      4.567656    0.214397    0.556030
  C      3.902112   -0.743407    1.312613
  C      2.518003   -0.902683    1.225209
  C      1.793612   -0.085656    0.363150
  H     -1.099752    0.394790    2.398905
  H     -0.186256   -1.097679    2.661840
  H     -1.937368   -1.161993    2.442660
  H     -1.636498   -2.846159    0.545558
  H     -0.593743   -2.464363   -0.830802
  H      0.115734   -2.778945    0.759322
  H     -1.925425    2.396007   -2.471378
  H     -4.359031    1.925449   -2.399481
  H     -5.249169    0.160925   -0.928993
  H     -3.738686   -1.178365    0.498193
  H      4.364125    1.792755   -0.909685
  H      5.640593    0.321658    0.639216
  H      4.465749   -1.378651    1.983004
  H      2.018247   -1.652722    1.821367

 Multiplicity           Mult            ....    1
 Number of Electrons    NEL             ....  148
 Basis Dimension        Dim             .... 1120

ORBITAL ENERGIES
----------------

  NO   OCC          E(Eh)            E(eV)
   0   2.0000     -89.092634     -2424.3338
   1   2.0000     -19.128741      -520.5195
   2   2.0000     -19.128656      -520.5172
   3   2.0000     -10.214403      -277.9480
   4   2.0000     -10.211750      -277.8758
   5   2.0000     -10.209091      -277.8035
   6   2.0000     -10.207987      -277.7734
   7   2.0000     -10.207738      -277.7667
   8   2.0000     -10.198719      -277.5213
   9   2.0000     -10.196536      -277.4618
  10   2.0000     -10.191533      -277.3257
  11   2.0000     -10.189872      -277.2805
  12   2.0000     -10.189042      -277.2579
  13   2.0000     -10.186183      -277.1801
  14   2.0000     -10.180291      -277.0198
  15   2.0000     -10.177921      -276.9553
  16   2.0000     -10.177103      -276.9330
  17   2.0000     -10.176323      -276.9118
  18   2.0000     -10.164337      -276.5857
  19   2.0000     -10.164117      -276.5797
  20   2.0000      -8.118286      -220.9098
  21   2.0000      -6.081628      -165.4895
  22   2.0000      -6.081277      -165.4800
  23   2.0000      -6.081251      -165.4793
  24   2.0000      -1.109582       -30.1933
  25   2.0000      -1.003858       -27.3164
  26   2.0000      -0.914758       -24.8918
  27   2.0000      -0.881542       -23.9880
  28   2.0000      -0.840685       -22.8762
  29   2.0000      -0.809958       -22.0401
  30   2.0000      -0.777309       -21.1517
  31   2.0000      -0.772874       -21.0310
  32   2.0000      -0.742723       -20.2105
  33   2.0000      -0.723250       -19.6806
  34   2.0000      -0.697605       -18.9828
  35   2.0000      -0.688823       -18.7438
  36   2.0000      -0.644016       -17.5246
  37   2.0000      -0.634878       -17.2759
  38   2.0000      -0.604894       -16.4600
  39   2.0000      -0.588843       -16.0232
  40   2.0000      -0.573029       -15.5929
  41   2.0000      -0.560726       -15.2581
  42   2.0000      -0.519475       -14.1356
  43   2.0000      -0.509627       -13.8677
  44   2.0000      -0.494456       -13.4548
  45   2.0000      -0.481053       -13.0901
  46   2.0000      -0.468984       -12.7617
  47   2.0000      -0.461969       -12.5708
  48   2.0000      -0.456612       -12.4250
  49   2.0000      -0.454164       -12.3584
  50   2.0000      -0.448678       -12.2091
  51   2.0000      -0.438058       -11.9202
  52   2.0000      -0.434051       -11.8111
  53   2.0000      -0.433275       -11.7900
  54   2.0000      -0.413171       -11.2430
  55   2.0000      -0.403414       -10.9775
  56   2.0000      -0.387963       -10.5570
  57   2.0000      -0.385719       -10.4959
  58   2.0000      -0.381268       -10.3748
  59   2.0000      -0.377249       -10.2655
  60   2.0000      -0.373054       -10.1513
  61   2.0000      -0.365075        -9.9342
  62   2.0000      -0.350415        -9.5353
  63   2.0000      -0.344529        -9.3751
  64   2.0000      -0.342223        -9.3124
  65   2.0000      -0.336090        -9.1455
  66   2.0000      -0.331315        -9.0155
  67   2.0000      -0.326231        -8.8772
  68   2.0000      -0.306922        -8.3518
  69   2.0000      -0.297641        -8.0992
  70   2.0000      -0.281036        -7.6474
  71   2.0000      -0.273014        -7.4291
  72   2.0000      -0.256930        -6.9914
  73   2.0000      -0.221172        -6.0184
  74   0.0000      -0.079231        -2.1560
  75   0.0000      -0.038946        -1.0598
  76   0.0000      -0.017763        -0.4834
  77   0.0000      -0.006348        -0.1727
  78   0.0000      -0.004590        -0.1249

MULLIKEN ATOMIC CHARGES
-----------------------
   0 C :   -0.490434
   1 C :    0.526992
   2 C :   -0.476440
   3 C :    0.044301
   4 C :   -0.625660
   5 C :    1.101935
   6 C :   -1.064057
   7 C :   -0.427975
   8 C :   -0.402799
   9 C :   -0.759377
  10 C :    0.936437
  11 S :    1.884467
  12 O :   -1.058080
  13 O :   -1.057495
  14 C :    1.027966
  15 C :   -0.939146
  16 C :   -0.213126
  17 C :   -0.619888
  18 C :   -0.766742
  19 C :    1.168304
  20 H :    0.166069
  21 H :    0.131251
  22 H :    0.122473
  23 H :    0.124130
  24 H :    0.166492
  25 H :    0.131912
  26 H :    0.117591
  27 H :    0.223405
  28 H :    0.195523
  29 H :    0.116889
  30 H :    0.175532
  31 H :    0.209641
  32 H :    0.207462
  33 H :    0.122446
Sum of atomic charges:    0.0000000

LOEWDIN ATOMIC CHARGES
----------------------
   0 C :    0.077506
   1 C :   -0.710343
   2 C :    0.078625
   3 C :   -0.214765
   4 C :   -0.216789
   5 C :   -0.245700
   6 C :   -0.007014
   7 C :   -0.120040
   8 C :   -0.116238
   9 C :   -0.017505
  10 C :   -0.285626
  11 S :    0.236496
  12 O :    0.039926
  13 O :    0.039805
  14 C :   -0.340918
  15 C :   -0.041243
  16 C :   -0.098431
  17 C :   -0.095872
  18 C :   -0.005079
  19 C :   -0.264210
  20 H :    0.144715
  21 H :    0.142840
  22 H :    0.143244
  23 H :    0.142934
  24 H :    0.145206
  25 H :    0.142939
  26 H :    0.185158
  27 H :    0.169905
  28 H :    0.169014
  29 H :    0.191894
  30 H :    0.187857
  31 H :    0.172684
  32 H :    0.174260
  33 H :    0.194765

  Mayer bond orders larger than 0.100000
B(  0-C ,  1-C ) :   0.6233 B(  0-C ,  3-C ) :   0.2589 B(  0-C , 10-C ) :   0.1463
B(  0-C , 19-C ) :  -0.1025 B(  0-C , 20-H ) :   0.9540 B(  0-C , 21-H ) :   0.9919
B(  0-C , 22-H ) :   0.9971 B(  1-C ,  2-C ) :   0.6545 B(  1-C ,  3-C ) :   0.9504
B(  1-C ,  4-C ) :   0.3316 B(  1-C ,  5-C ) :   0.5548 B(  1-C ,  7-C ) :   0.1649
B(  1-C ,  9-C ) :   0.1431 B(  1-C , 10-C ) :   0.6832 B(  2-C ,  3-C ) :   0.2450
B(  2-C , 10-C ) :   0.1323 B(  2-C , 19-C ) :  -0.1032 B(  2-C , 23-H ) :   0.9927
B(  2-C , 24-H ) :   0.9532 B(  2-C , 25-H ) :   0.9885 B(  3-C ,  4-C ) :   1.0193
B(  3-C ,  5-C ) :  -0.2654 B(  3-C ,  6-C ) :   0.1136 B(  3-C ,  7-C ) :  -0.1705
B(  3-C ,  9-C ) :  -0.2735 B(  3-C , 10-C ) :   0.1950 B(  3-C , 11-S ) :   0.5309
B(  3-C , 14-C ) :  -0.2077 B(  3-C , 15-C ) :   0.4130 B(  3-C , 16-C ) :   0.1247
B(  3-C , 17-C ) :   0.1635 B(  4-C ,  6-C ) :   0.2972 B(  4-C ,  7-C ) :   0.1842
B(  4-C ,  9-C ) :   0.2914 B(  4-C , 10-C ) :  -0.2963 B(  4-C , 11-S ) :   0.5991
B(  4-C , 12-O ) :   0.2002 B(  4-C , 13-O ) :   0.1915 B(  4-C , 15-C ) :  -0.1411
B(  4-C , 18-C ) :   0.1690 B(  4-C , 19-C ) :   0.3083 B(  5-C ,  6-C ) :   0.3016
B(  5-C ,  7-C ) :  -0.2056 B(  5-C ,  9-C ) :  -0.2573 B(  5-C , 10-C ) :   0.5378
B(  5-C , 11-S ) :  -0.1534 B(  5-C , 14-C ) :   0.1374 B(  5-C , 19-C ) :   0.1333
B(  5-C , 26-H ) :  -0.1265 B(  6-C ,  7-C ) :   1.3273 B(  6-C ,  8-C ) :   0.1237
B(  6-C , 10-C ) :  -0.1425 B(  6-C , 26-H ) :   1.1123 B(  7-C ,  8-C ) :   1.2484
B(  7-C ,  9-C ) :   0.1244 B(  7-C , 10-C ) :  -0.1628 B(  7-C , 27-H ) :   0.9109
B(  8-C ,  9-C ) :   1.0471 B(  8-C , 10-C ) :  -0.2062 B(  8-C , 28-H ) :   0.9706
B(  9-C , 10-C ) :   0.6514 B(  9-C , 29-H ) :   1.0710 B( 10-C , 14-C ) :  -0.1338
B( 11-S , 12-O ) :   0.9976 B( 11-S , 13-O ) :   0.9923 B( 11-S , 14-C ) :   0.5668
B( 12-O , 13-O ) :   0.1579 B( 14-C , 15-C ) :   0.3834 B( 14-C , 16-C ) :  -0.1437
B( 14-C , 18-C ) :  -0.6217 B( 14-C , 19-C ) :   0.8526 B( 15-C , 16-C ) :   0.9782
B( 15-C , 17-C ) :   0.2348 B( 15-C , 19-C ) :   0.3549 B( 15-C , 30-H ) :   0.9723
B( 16-C , 17-C ) :   1.2350 B( 16-C , 31-H ) :   0.9476 B( 17-C , 18-C ) :   1.3162
B( 17-C , 19-C ) :  -0.2640 B( 17-C , 32-H ) :   0.9465 B( 18-C , 19-C ) :   0.7626
B( 18-C , 33-H ) :   1.0823

-----------------------------------------------------------------------------
         ABSORPTION SPECTRUM VIA TRANSITION ELECTRIC DIPOLE MOMENTS
-----------------------------------------------------------------------------
State   Energy    Wavelength  fosc         T2        TX        TY        TZ
        (cm-1)      (nm)                 (au**2)    (au)      (au)      (au)
-----------------------------------------------------------------------------
   1   27588.3    362.5   0.427392041   5.10009   2.18336  -0.21021   0.53743
   2   33775.5    296.1   0.016618159   0.16198  -0.25867  -0.24900   0.18185
   3   34491.4    289.9   0.139850446   1.33484   1.09344  -0.17636   0.32882
   4   38936.6    256.8   0.520794715   4.40336  -1.72959   0.73018  -0.93739
   5   39339.6    254.2   0.029751243   0.24897   0.47512  -0.06119   0.13961
   6   39572.2    252.7   0.000648911   0.00540  -0.04129   0.05147   0.03231
   7   39716.7    251.8   0.022461549   0.18618  -0.12650   0.29542  -0.28794
   8   42265.7    236.6   0.000987893   0.00769   0.02252  -0.05817  -0.06168
   9   43588.2    229.4   0.054531891   0.41187  -0.49043  -0.33975   0.23646
  10   44396.6    225.2   0.070817335   0.52513   0.33482  -0.44992   0.45890

FINAL SINGLE POINT ENERGY     -1204.502195915918

DIPOLE MOMENT
-------------
                                X             Y             Z
Electronic contribution:      7.57325      11.00362      -8.76676
Nuclear contribution   :     -7.76352     -13.50755      11.04073
                        -----------------------------------------
Total Dipole Moment    :     -0.19026      -2.50393       2.27397
                        -----------------------------------------
Magnitude (a.u.)       :      3.38775
Magnitude (Debye)      :      8.61097

Rotational constants in cm-1:     0.019299     0.009096     0.006695
Rotational constants in MHz :   578.567854   272.679305   200.715731

                             ****ORCA TERMINATED NORMALLY****
TOTAL RUN TIME: 0 days 4 hours 34 minutes 50 seconds 850 msec
