                         Program Version 5.0.2 -  RELEASE  -
|  1> ! m062x defgrid3 aug-cc-PVTZ RIJCOSX Opt
|  2> %maxcore 4000
|  3> %basis
|  4>  AuxJ "aug-cc-PVTZ/JK"
|  5>  AuxC "aug-cc-PVTZ/C"
|  6>  newGTO H "cc-PVTZ" end
|  7>  newAuxJGTO H "cc-PVTZ/JK" end
|  8>  newAuxCGTO H "cc-PVTZ/C" end
|  9> end
| 10> %cpcm
| 11>  SMD true
| 12>  SMDsolvent "dichloromethane"
| 13> end
| 14> %pal nprocs 4 end
| 15> * xyz 0 1
| 16> C         -1.00590       -0.61600        2.10610
| 17> C         -0.82430       -0.80940        0.59740
| 18> C         -0.70850       -2.29480        0.24150
| 19> C          0.35590       -0.01940        0.07520
| 20> C         -0.04950        0.90770       -0.82140
| 21> C         -1.47290        0.86060       -1.00630
| 22> C         -2.32270        1.60350       -1.80920
| 23> C         -3.67690        1.31370       -1.76610
| 24> C         -4.16430        0.30930       -0.94260
| 25> C         -3.31160       -0.43630       -0.13640
| 26> C         -1.96300       -0.16070       -0.16770
| 27> S          1.35280        1.83120       -1.42690
| 28> O          1.59060        1.57500       -2.82150
| 29> O          1.30250        3.20400       -1.00210
| 30> C          2.48960        0.88190       -0.39640
| 31> C          3.85070        1.01580       -0.30260
| 32> C          4.54150        0.17220        0.56280
| 33> C          3.85550       -0.77500        1.30520
| 34> C          2.47840       -0.90500        1.20540
| 35> C          1.77630       -0.06850        0.34410
| 36> H         -1.08770        0.44300        2.33950
| 37> H         -0.16070       -1.02730        2.65140
| 38> H         -1.91260       -1.11600        2.43770
| 39> H         -1.61150       -2.81990        0.54310
| 40> H         -0.57990       -2.41280       -0.83180
| 41> H          0.14240       -2.74600        0.74480
| 42> H         -1.93030        2.38170       -2.44500
| 43> H         -4.36340        1.87620       -2.38110
| 44> H         -5.22420        0.10230       -0.92680
| 45> H         -3.70880       -1.21460        0.49870
| 46> H          4.36320        1.76090       -0.89060
| 47> H          5.61340        0.25730        0.65470
| 48> H          4.40100       -1.42460        1.97380
| 49> H          1.96480       -1.64980        1.79320
| 50> *
| 51>
| 52>
| 53> $new_job
| 54> ! m062x defgrid3 aug-cc-PVTZ RIJCOSX SP
| 55> %maxcore 4000
| 56> %basis
| 57>  AuxJ "aug-cc-PVTZ/JK"
| 58>  AuxC "aug-cc-PVTZ/C"
| 59>  newGTO H "cc-PVTZ" end
| 60>  newAuxJGTO H "cc-PVTZ/JK" end
| 61>  newAuxCGTO H "cc-PVTZ/C" end
| 62> end
| 63> %cpcm
| 64>  SMD true
| 65>  SMDsolvent "dichloromethane"
| 66> end
| 67> %pal nprocs 4 end
| 68> %tddft
| 69>  nroots 10
| 70>  maxdim 7
| 71> end
| 72> * xyzfile 0 1
| 73>
| 74>                          ****END OF INPUT****
 Total Charge           Charge          ....    0
 Multiplicity           Mult            ....    1
 Number of Electrons    NEL             ....  148
FINAL SINGLE POINT ENERGY     -1204.822936244945
FINAL SINGLE POINT ENERGY     -1204.824573573502
FINAL SINGLE POINT ENERGY     -1204.825089662382
FINAL SINGLE POINT ENERGY     -1204.825111681935
FINAL SINGLE POINT ENERGY     -1204.825117139041
                    ***********************HURRAY********************
FINAL SINGLE POINT ENERGY     -1204.825117248014

CARTESIAN COORDINATES (ANGSTROEM)
---------------------------------
  C     -1.016645   -0.623108    2.111731
  C     -0.839818   -0.813721    0.600130
  C     -0.723451   -2.304104    0.257988
  C      0.349170   -0.037558    0.089338
  C     -0.035314    0.889536   -0.799594
  C     -1.472807    0.868442   -1.013897
  C     -2.315039    1.615489   -1.823314
  C     -3.675600    1.328667   -1.787618
  C     -4.171292    0.323231   -0.962846
  C     -3.318285   -0.424621   -0.151492
  C     -1.965292   -0.149943   -0.178969
  S      1.345731    1.808394   -1.393796
  O      1.582987    1.564082   -2.808085
  O      1.290187    3.195777   -0.959418
  C      2.483823    0.868802   -0.382352
  C      3.845136    1.034897   -0.320599
  C      4.552462    0.192242    0.539780
  C      3.887133   -0.765666    1.291860
  C      2.502887   -0.917095    1.212745
  C      1.788794   -0.088685    0.362162
  H     -1.094305    0.433786    2.367349
  H     -0.171028   -1.052988    2.649398
  H     -1.926093   -1.128415    2.438231
  H     -1.633609   -2.820393    0.564805
  H     -0.584413   -2.451086   -0.813189
  H      0.119989   -2.750196    0.785603
  H     -1.926916    2.397231   -2.463222
  H     -4.356937    1.894561   -2.408670
  H     -5.233655    0.118813   -0.951825
  H     -3.713698   -1.205946    0.486386
  H      4.351240    1.786046   -0.912926
  H      5.626444    0.289664    0.617646
  H      4.452439   -1.408613    1.952927
  H      1.995676   -1.667321    1.803832

 Multiplicity           Mult            ....    1
 Number of Electrons    NEL             ....  148
 Basis Dimension        Dim             .... 1120

ORBITAL ENERGIES
----------------

  NO   OCC          E(Eh)            E(eV)
   0   2.0000     -90.141774     -2452.8824
   1   2.0000     -19.627397      -534.0886
   2   2.0000     -19.627304      -534.0861
   3   2.0000     -10.583547      -287.9930
   4   2.0000     -10.581384      -287.9341
   5   2.0000     -10.579331      -287.8782
   6   2.0000     -10.577858      -287.8381
   7   2.0000     -10.572606      -287.6952
   8   2.0000     -10.568919      -287.5949
   9   2.0000     -10.566095      -287.5181
  10   2.0000     -10.561970      -287.4058
  11   2.0000     -10.559463      -287.3376
  12   2.0000     -10.558401      -287.3087
  13   2.0000     -10.554907      -287.2136
  14   2.0000     -10.549915      -287.0778
  15   2.0000     -10.547245      -287.0051
  16   2.0000     -10.546002      -286.9713
  17   2.0000     -10.544931      -286.9422
  18   2.0000     -10.531907      -286.5878
  19   2.0000     -10.531801      -286.5849
  20   2.0000      -8.451071      -229.9653
  21   2.0000      -6.372335      -173.4001
  22   2.0000      -6.371736      -173.3837
  23   2.0000      -6.371523      -173.3780
  24   2.0000      -1.239181       -33.7198
  25   2.0000      -1.129256       -30.7286
  26   2.0000      -1.028698       -27.9923
  27   2.0000      -0.992470       -27.0065
  28   2.0000      -0.948255       -25.8033
  29   2.0000      -0.915542       -24.9132
  30   2.0000      -0.879080       -23.9210
  31   2.0000      -0.874843       -23.8057
  32   2.0000      -0.842377       -22.9223
  33   2.0000      -0.820386       -22.3238
  34   2.0000      -0.791496       -21.5377
  35   2.0000      -0.784849       -21.3568
  36   2.0000      -0.732196       -19.9241
  37   2.0000      -0.723911       -19.6986
  38   2.0000      -0.690646       -18.7934
  39   2.0000      -0.673375       -18.3235
  40   2.0000      -0.657520       -17.8920
  41   2.0000      -0.643072       -17.4989
  42   2.0000      -0.598647       -16.2900
  43   2.0000      -0.590738       -16.0748
  44   2.0000      -0.571764       -15.5585
  45   2.0000      -0.556740       -15.1497
  46   2.0000      -0.553481       -15.0610
  47   2.0000      -0.534418       -14.5423
  48   2.0000      -0.529974       -14.4213
  49   2.0000      -0.526234       -14.3196
  50   2.0000      -0.520717       -14.1694
  51   2.0000      -0.513598       -13.9757
  52   2.0000      -0.505124       -13.7451
  53   2.0000      -0.502559       -13.6753
  54   2.0000      -0.478858       -13.0304
  55   2.0000      -0.478668       -13.0252
  56   2.0000      -0.457331       -12.4446
  57   2.0000      -0.452305       -12.3079
  58   2.0000      -0.448182       -12.1957
  59   2.0000      -0.447299       -12.1716
  60   2.0000      -0.439896       -11.9702
  61   2.0000      -0.425535       -11.5794
  62   2.0000      -0.423455       -11.5228
  63   2.0000      -0.413416       -11.2496
  64   2.0000      -0.407512       -11.0890
  65   2.0000      -0.404725       -11.0131
  66   2.0000      -0.397605       -10.8194
  67   2.0000      -0.384593       -10.4653
  68   2.0000      -0.375434       -10.2161
  69   2.0000      -0.359824        -9.7913
  70   2.0000      -0.338386        -9.2080
  71   2.0000      -0.330848        -9.0028
  72   2.0000      -0.311818        -8.4850
  73   2.0000      -0.272587        -7.4175
  74   0.0000      -0.051670        -1.4060
  75   0.0000      -0.010149        -0.2762
  76   0.0000      -0.000037        -0.0010
  77   0.0000       0.008980         0.2443
  78   0.0000       0.011338         0.3085

MULLIKEN ATOMIC CHARGES
-----------------------
   0 C :   -0.471885
   1 C :   -0.277180
   2 C :   -0.469234
   3 C :    0.076913
   4 C :   -0.920079
   5 C :    1.618481
   6 C :   -1.157314
   7 C :   -0.481736
   8 C :   -0.393941
   9 C :   -0.844110
  10 C :    1.394543
  11 S :    1.256018
  12 O :   -0.935620
  13 O :   -0.934266
  14 C :    1.424996
  15 C :   -1.064989
  16 C :   -0.258268
  17 C :   -0.705276
  18 C :   -0.867401
  19 C :    1.744488
  20 H :    0.267494
  21 H :    0.225328
  22 H :    0.206786
  23 H :    0.207092
  24 H :    0.263603
  25 H :    0.224520
  26 H :    0.056438
  27 H :    0.134241
  28 H :    0.108818
  29 H :    0.069302
  30 H :    0.126869
  31 H :    0.136866
  32 H :    0.116324
  33 H :    0.122178
Sum of atomic charges:   -0.0000000

LOEWDIN ATOMIC CHARGES
----------------------
   0 C :    0.084777
   1 C :   -0.746598
   2 C :    0.084187
   3 C :   -0.226258
   4 C :   -0.214961
   5 C :   -0.247018
   6 C :   -0.004599
   7 C :   -0.118597
   8 C :   -0.114723
   9 C :   -0.015295
  10 C :   -0.300225
  11 S :    0.205076
  12 O :    0.049226
  13 O :    0.049527
  14 C :   -0.349118
  15 C :   -0.035682
  16 C :   -0.095515
  17 C :   -0.092725
  18 C :   -0.003683
  19 C :   -0.269308
  20 H :    0.150372
  21 H :    0.148583
  22 H :    0.147995
  23 H :    0.148040
  24 H :    0.150055
  25 H :    0.148291
  26 H :    0.188292
  27 H :    0.171483
  28 H :    0.170814
  29 H :    0.196143
  30 H :    0.191433
  31 H :    0.174728
  32 H :    0.176052
  33 H :    0.199231

  Mayer bond orders larger than 0.100000
B(  0-C ,  1-C ) :   0.6956 B(  0-C ,  3-C ) :   0.3033 B(  0-C , 10-C ) :   0.2496
B(  0-C , 19-C ) :  -0.1058 B(  0-C , 20-H ) :   0.8712 B(  0-C , 21-H ) :   0.9175
B(  0-C , 22-H ) :   0.9424 B(  1-C ,  2-C ) :   0.7103 B(  1-C ,  3-C ) :   1.2140
B(  1-C ,  4-C ) :   0.4273 B(  1-C ,  5-C ) :   0.5361 B(  1-C ,  6-C ) :  -0.1837
B(  1-C ,  7-C ) :   0.2015 B(  1-C , 10-C ) :   1.0946 B(  1-C , 11-S ) :  -0.1329
B(  1-C , 14-C ) :  -0.1030 B(  2-C ,  3-C ) :   0.2951 B(  2-C , 10-C ) :   0.2308
B(  2-C , 19-C ) :  -0.1064 B(  2-C , 23-H ) :   0.9412 B(  2-C , 24-H ) :   0.8755
B(  2-C , 25-H ) :   0.9172 B(  3-C ,  4-C ) :   2.0112 B(  3-C ,  5-C ) :  -0.7886
B(  3-C ,  7-C ) :  -0.1900 B(  3-C ,  9-C ) :  -0.2979 B(  3-C , 10-C ) :   0.3271
B(  3-C , 11-S ) :   0.6206 B(  3-C , 14-C ) :  -0.4663 B(  3-C , 15-C ) :   0.5076
B(  3-C , 16-C ) :   0.2238 B(  3-C , 17-C ) :   0.3019 B(  4-C ,  6-C ) :   0.5570
B(  4-C ,  7-C ) :   0.3375 B(  4-C ,  9-C ) :   0.4712 B(  4-C , 10-C ) :  -0.4753
B(  4-C , 11-S ) :   0.1816 B(  4-C , 12-O ) :   0.1763 B(  4-C , 13-O ) :   0.1676
B(  4-C , 14-C ) :   0.2756 B(  4-C , 15-C ) :  -0.1262 B(  4-C , 18-C ) :   0.1176
B(  4-C , 19-C ) :  -0.1748 B(  4-C , 26-H ) :   0.1767 B(  5-C ,  6-C ) :  -0.4406
B(  5-C ,  7-C ) :  -0.4400 B(  5-C ,  8-C ) :   0.1494 B(  5-C ,  9-C ) :  -0.3705
B(  5-C , 10-C ) :   0.4775 B(  5-C , 11-S ) :  -0.1720 B(  5-C , 15-C ) :  -0.1167
B(  5-C , 18-C ) :  -0.1184 B(  5-C , 19-C ) :   0.3391 B(  5-C , 26-H ) :  -0.4159
B(  6-C ,  7-C ) :   1.3508 B(  6-C ,  8-C ) :   0.1054 B(  6-C ,  9-C ) :   0.1079
B(  6-C , 10-C ) :  -0.2267 B(  6-C , 26-H ) :   1.3097 B(  6-C , 27-H ) :  -0.1178
B(  7-C ,  8-C ) :   1.0679 B(  7-C , 10-C ) :  -0.1413 B(  7-C , 27-H ) :   1.0896
B(  8-C ,  9-C ) :   0.9345 B(  8-C , 10-C ) :  -0.3644 B(  8-C , 28-H ) :   1.1286
B(  9-C , 28-H ) :  -0.1057 B(  9-C , 29-H ) :   1.2810 B( 10-C , 11-S ) :   0.1216
B( 10-C , 19-C ) :  -0.1905 B( 10-C , 29-H ) :  -0.2024 B( 11-S , 12-O ) :   1.1891
B( 11-S , 13-O ) :   1.2076 B( 11-S , 14-C ) :   0.3473 B( 11-S , 19-C ) :   0.2330
B( 14-C , 15-C ) :  -0.1545 B( 14-C , 16-C ) :  -0.1420 B( 14-C , 17-C ) :  -0.1475
B( 14-C , 18-C ) :  -0.5218 B( 14-C , 19-C ) :   0.8165 B( 15-C , 16-C ) :   0.9343
B( 15-C , 17-C ) :   0.2076 B( 15-C , 19-C ) :   0.4349 B( 15-C , 30-H ) :   1.1446
B( 16-C , 17-C ) :   1.0791 B( 16-C , 19-C ) :  -0.1551 B( 16-C , 30-H ) :  -0.1074
B( 16-C , 31-H ) :   1.0917 B( 17-C , 18-C ) :   1.2805 B( 17-C , 19-C ) :  -0.5456
B( 17-C , 32-H ) :   1.1331 B( 18-C , 19-C ) :  -0.3473 B( 18-C , 32-H ) :  -0.1305
B( 18-C , 33-H ) :   1.2516 B( 19-C , 33-H ) :  -0.3468

-----------------------------------------------------------------------------
         ABSORPTION SPECTRUM VIA TRANSITION ELECTRIC DIPOLE MOMENTS
-----------------------------------------------------------------------------
State   Energy    Wavelength  fosc         T2        TX        TY        TZ
        (cm-1)      (nm)                 (au**2)    (au)      (au)      (au)
-----------------------------------------------------------------------------
   1   31200.8    320.5   0.477526859   5.03858  -2.16194   0.23669  -0.55551
   2   38806.6    257.7   0.088654555   0.75209  -0.84902   0.04052  -0.17208
   3   39706.4    251.8   0.011510023   0.09543  -0.09503   0.21021  -0.20546
   4   43663.0    229.0   0.001016258   0.00766   0.01773   0.04434   0.07336
   5   44120.7    226.7   0.537744815   4.01245  -1.70873   0.63182  -0.83276
   6   45311.4    220.7   0.296604750   2.15500   0.92269  -0.77226   0.84098
   7   45815.0    218.3   0.000779127   0.00560  -0.00833   0.05352   0.05162
   8   46699.7    214.1   0.025964451   0.18304   0.27851   0.26107  -0.19316
   9   49008.0    204.0   0.097409174   0.65435  -0.45041   0.46724  -0.48286
  10   49437.6    202.3   0.000312743   0.00208  -0.00288   0.02792   0.03599

FINAL SINGLE POINT ENERGY     -1204.682956021208

DIPOLE MOMENT
-------------
                                X             Y             Z
Electronic contribution:      7.55681      10.94315      -8.59133
Nuclear contribution   :     -7.72224     -13.52102      10.85236
                        -----------------------------------------
Total Dipole Moment    :     -0.16543      -2.57787       2.26103
                        -----------------------------------------
Magnitude (a.u.)       :      3.43293
Magnitude (Debye)      :      8.72581

Rotational constants in cm-1:     0.019526     0.009150     0.006746
Rotational constants in MHz :   585.380816   274.297709   202.230947

                             ****ORCA TERMINATED NORMALLY****
TOTAL RUN TIME: 0 days 5 hours 20 minutes 47 seconds 475 msec
