                         Program Version 5.0.2 -  RELEASE  -
|  1> ! pbe0 d3bj aug-cc-PVTZ RIJCOSX Opt
|  2> %maxcore 4000
|  3> %basis
|  4>  AuxJ "aug-cc-PVTZ/JK"
|  5>  AuxC "aug-cc-PVTZ/C"
|  6>  newGTO H "cc-PVTZ" end
|  7>  newAuxJGTO H "cc-PVTZ/JK" end
|  8>  newAuxCGTO H "cc-PVTZ/C" end
|  9> end
| 10> %cpcm
| 11>  SMD true
| 12>  SMDsolvent "dichloromethane"
| 13> end
| 14> %pal nprocs 4 end
| 15> * xyz 0 1
| 16> C         -1.00590       -0.61600        2.10610
| 17> C         -0.82430       -0.80940        0.59740
| 18> C         -0.70850       -2.29480        0.24150
| 19> C          0.35590       -0.01940        0.07520
| 20> C         -0.04950        0.90770       -0.82140
| 21> C         -1.47290        0.86060       -1.00630
| 22> C         -2.32270        1.60350       -1.80920
| 23> C         -3.67690        1.31370       -1.76610
| 24> C         -4.16430        0.30930       -0.94260
| 25> C         -3.31160       -0.43630       -0.13640
| 26> C         -1.96300       -0.16070       -0.16770
| 27> S          1.35280        1.83120       -1.42690
| 28> O          1.59060        1.57500       -2.82150
| 29> O          1.30250        3.20400       -1.00210
| 30> C          2.48960        0.88190       -0.39640
| 31> C          3.85070        1.01580       -0.30260
| 32> C          4.54150        0.17220        0.56280
| 33> C          3.85550       -0.77500        1.30520
| 34> C          2.47840       -0.90500        1.20540
| 35> C          1.77630       -0.06850        0.34410
| 36> H         -1.08770        0.44300        2.33950
| 37> H         -0.16070       -1.02730        2.65140
| 38> H         -1.91260       -1.11600        2.43770
| 39> H         -1.61150       -2.81990        0.54310
| 40> H         -0.57990       -2.41280       -0.83180
| 41> H          0.14240       -2.74600        0.74480
| 42> H         -1.93030        2.38170       -2.44500
| 43> H         -4.36340        1.87620       -2.38110
| 44> H         -5.22420        0.10230       -0.92680
| 45> H         -3.70880       -1.21460        0.49870
| 46> H          4.36320        1.76090       -0.89060
| 47> H          5.61340        0.25730        0.65470
| 48> H          4.40100       -1.42460        1.97380
| 49> H          1.96480       -1.64980        1.79320
| 50> *
| 51>
| 52>
| 53> $new_job
| 54> ! b2plyp aug-cc-PVTZ RIJCOSX SP
| 55> %maxcore 4000
| 56> %basis
| 57>  AuxJ "aug-cc-PVTZ/JK"
| 58>  AuxC "aug-cc-PVTZ/C"
| 59>  newGTO H "cc-PVTZ" end
| 60>  newAuxJGTO H "cc-PVTZ/JK" end
| 61>  newAuxCGTO H "cc-PVTZ/C" end
| 62> end
| 63> %cpcm
| 64>  SMD true
| 65>  SMDsolvent "dichloromethane"
| 66> end
| 67> %pal nprocs 4 end
| 68> %tddft
| 69>  nroots 10
| 70>  maxdim 7
| 71> end
| 72> * xyzfile 0 1
| 73>
| 74>                          ****END OF INPUT****
 Total Charge           Charge          ....    0
 Multiplicity           Mult            ....    1
 Number of Electrons    NEL             ....  148
Dispersion correction           -0.046118223
FINAL SINGLE POINT ENERGY     -1204.134529533002
Dispersion correction            ... done
Dispersion correction           -0.046073601
FINAL SINGLE POINT ENERGY     -1204.136038224315
Dispersion correction            ... done
Dispersion correction           -0.046044318
FINAL SINGLE POINT ENERGY     -1204.136528736640
Dispersion correction            ... done
FINAL SINGLE POINT ENERGY     -1204.136542683688
Dispersion correction            ... done
Dispersion correction           -0.046044092
FINAL SINGLE POINT ENERGY     -1204.136548031557
Dispersion correction            ... done
                    ***********************HURRAY********************
Dispersion correction           -0.046044221
FINAL SINGLE POINT ENERGY     -1204.136549079263

CARTESIAN COORDINATES (ANGSTROEM)
---------------------------------
  C     -1.018441   -0.652017    2.106887
  C     -0.837892   -0.820957    0.596345
  C     -0.722887   -2.304805    0.233611
  C      0.352968   -0.047689    0.091179
  C     -0.033103    0.872802   -0.812135
  C     -1.463698    0.859501   -1.018792
  C     -2.305670    1.612559   -1.823812
  C     -3.667752    1.343382   -1.773619
  C     -4.167830    0.348337   -0.940290
  C     -3.317235   -0.407134   -0.135190
  C     -1.962310   -0.150779   -0.175352
  S      1.343249    1.781505   -1.420207
  O      1.589743    1.502170   -2.827761
  O      1.276536    3.179556   -1.020321
  C      2.477099    0.867661   -0.385163
  C      3.836929    1.042084   -0.315093
  C      4.546447    0.214211    0.555179
  C      3.884387   -0.741913    1.311011
  C      2.503875   -0.903177    1.226042
  C      1.783650   -0.088179    0.366039
  H     -1.091042    0.401778    2.380659
  H     -0.178294   -1.094015    2.644885
  H     -1.932384   -1.156024    2.426086
  H     -1.631250   -2.829280    0.535364
  H     -0.587209   -2.438090   -0.840948
  H      0.123904   -2.759871    0.749927
  H     -1.915768    2.389602   -2.470016
  H     -4.349257    1.917363   -2.389920
  H     -5.234311    0.158662   -0.916356
  H     -3.719339   -1.179757    0.510376
  H      4.343343    1.791663   -0.910755
  H      5.620619    0.321695    0.638419
  H      4.450823   -1.376632    1.981524
  H      2.002003   -1.654011    1.822297

 Multiplicity           Mult            ....    1
 Number of Electrons    NEL             ....  148
 Basis Dimension        Dim             .... 1120

ORBITAL ENERGIES
----------------

  NO   OCC          E(Eh)            E(eV)
   0   2.0000     -90.392288     -2459.6992
   1   2.0000     -19.725407      -536.7556
   2   2.0000     -19.725231      -536.7508
   3   2.0000     -10.658775      -290.0400
   4   2.0000     -10.656750      -289.9849
   5   2.0000     -10.654918      -289.9351
   6   2.0000     -10.652011      -289.8560
   7   2.0000     -10.647466      -289.7323
   8   2.0000     -10.644608      -289.6545
   9   2.0000     -10.639838      -289.5247
  10   2.0000     -10.636535      -289.4348
  11   2.0000     -10.635202      -289.3986
  12   2.0000     -10.633583      -289.3545
  13   2.0000     -10.628369      -289.2126
  14   2.0000     -10.624193      -289.0990
  15   2.0000     -10.621521      -289.0263
  16   2.0000     -10.620628      -289.0020
  17   2.0000     -10.619704      -288.9768
  18   2.0000     -10.606601      -288.6203
  19   2.0000     -10.606339      -288.6131
  20   2.0000      -8.553119      -232.7422
  21   2.0000      -6.401162      -174.1845
  22   2.0000      -6.400629      -174.1700
  23   2.0000      -6.400507      -174.1667
  24   2.0000      -1.258659       -34.2498
  25   2.0000      -1.147243       -31.2181
  26   2.0000      -1.048524       -28.5318
  27   2.0000      -1.010862       -27.5069
  28   2.0000      -0.965286       -26.2668
  29   2.0000      -0.931398       -25.3446
  30   2.0000      -0.894630       -24.3441
  31   2.0000      -0.890201       -24.2236
  32   2.0000      -0.856501       -23.3066
  33   2.0000      -0.833983       -22.6938
  34   2.0000      -0.802496       -21.8370
  35   2.0000      -0.794927       -21.6311
  36   2.0000      -0.742650       -20.2085
  37   2.0000      -0.733116       -19.9491
  38   2.0000      -0.698620       -19.0104
  39   2.0000      -0.681033       -18.5319
  40   2.0000      -0.662302       -18.0221
  41   2.0000      -0.647858       -17.6291
  42   2.0000      -0.600042       -16.3280
  43   2.0000      -0.591132       -16.0855
  44   2.0000      -0.574496       -15.6328
  45   2.0000      -0.559827       -15.2337
  46   2.0000      -0.547609       -14.9012
  47   2.0000      -0.537423       -14.6240
  48   2.0000      -0.531888       -14.4734
  49   2.0000      -0.528638       -14.3850
  50   2.0000      -0.523256       -14.2385
  51   2.0000      -0.507782       -13.8175
  52   2.0000      -0.505964       -13.7680
  53   2.0000      -0.505157       -13.7460
  54   2.0000      -0.482640       -13.1333
  55   2.0000      -0.468370       -12.7450
  56   2.0000      -0.453780       -12.3480
  57   2.0000      -0.452674       -12.3179
  58   2.0000      -0.448558       -12.2059
  59   2.0000      -0.439915       -11.9707
  60   2.0000      -0.439633       -11.9630
  61   2.0000      -0.430172       -11.7056
  62   2.0000      -0.414163       -11.2699
  63   2.0000      -0.409349       -11.1390
  64   2.0000      -0.407237       -11.0815
  65   2.0000      -0.399148       -10.8614
  66   2.0000      -0.395295       -10.7565
  67   2.0000      -0.385511       -10.4903
  68   2.0000      -0.363949        -9.9036
  69   2.0000      -0.358330        -9.7506
  70   2.0000      -0.320321        -8.7164
  71   2.0000      -0.313823        -8.5396
  72   2.0000      -0.294024        -8.0008
  73   2.0000      -0.251817        -6.8523
  74   0.0000      -0.030632        -0.8335
  75   0.0000       0.012846         0.3496
  76   0.0000       0.017943         0.4883
  77   0.0000       0.025689         0.6990
  78   0.0000       0.029546         0.8040

MULLIKEN ATOMIC CHARGES
-----------------------
   0 C :   -0.573698
   1 C :    0.342022
   2 C :   -0.542984
   3 C :   -0.214189
   4 C :   -0.448236
   5 C :    1.191421
   6 C :   -1.078869
   7 C :   -0.497226
   8 C :   -0.456326
   9 C :   -0.816201
  10 C :    1.025798
  11 S :    1.763331
  12 O :   -1.080797
  13 O :   -1.081727
  14 C :    1.159424
  15 C :   -0.976662
  16 C :   -0.239566
  17 C :   -0.647070
  18 C :   -0.842806
  19 C :    1.314796
  20 H :    0.204413
  21 H :    0.170914
  22 H :    0.161022
  23 H :    0.163924
  24 H :    0.204817
  25 H :    0.170859
  26 H :    0.159438
  27 H :    0.254257
  28 H :    0.213515
  29 H :    0.154583
  30 H :    0.214110
  31 H :    0.236242
  32 H :    0.234717
  33 H :    0.156756
Sum of atomic charges:    0.0000000

LOEWDIN ATOMIC CHARGES
----------------------
   0 C :    0.080436
   1 C :   -0.730017
   2 C :    0.081696
   3 C :   -0.215730
   4 C :   -0.211771
   5 C :   -0.246755
   6 C :   -0.005434
   7 C :   -0.122308
   8 C :   -0.117916
   9 C :   -0.015893
  10 C :   -0.292321
  11 S :    0.233666
  12 O :    0.029374
  13 O :    0.029253
  14 C :   -0.342243
  15 C :   -0.036228
  16 C :   -0.097074
  17 C :   -0.094556
  18 C :   -0.001504
  19 C :   -0.264841
  20 H :    0.147071
  21 H :    0.144933
  22 H :    0.145319
  23 H :    0.144961
  24 H :    0.147817
  25 H :    0.145123
  26 H :    0.187414
  27 H :    0.171812
  28 H :    0.170967
  29 H :    0.194543
  30 H :    0.190863
  31 H :    0.174924
  32 H :    0.176797
  33 H :    0.197622

  Mayer bond orders larger than 0.100000
B(  0-C ,  1-C ) :   0.6156 B(  0-C ,  3-C ) :   0.2771 B(  0-C , 10-C ) :   0.1519
B(  0-C , 20-H ) :   0.9500 B(  0-C , 21-H ) :   0.9893 B(  0-C , 22-H ) :   0.9983
B(  1-C ,  2-C ) :   0.6732 B(  1-C ,  3-C ) :   0.9969 B(  1-C ,  4-C ) :   0.4315
B(  1-C ,  5-C ) :   0.4668 B(  1-C ,  6-C ) :  -0.1374 B(  1-C ,  7-C ) :   0.1987
B(  1-C ,  9-C ) :   0.1929 B(  1-C , 10-C ) :   0.8105 B(  1-C , 11-S ) :  -0.1494
B(  2-C ,  3-C ) :   0.2430 B(  2-C , 10-C ) :   0.1260 B(  2-C , 19-C ) :  -0.1040
B(  2-C , 23-H ) :   0.9906 B(  2-C , 24-H ) :   0.9485 B(  2-C , 25-H ) :   0.9821
B(  3-C ,  4-C ) :   1.3415 B(  3-C ,  5-C ) :  -0.3691 B(  3-C ,  6-C ) :   0.2467
B(  3-C ,  7-C ) :  -0.2001 B(  3-C ,  9-C ) :  -0.3781 B(  3-C , 10-C ) :   0.1653
B(  3-C , 11-S ) :   0.7534 B(  3-C , 14-C ) :  -0.2682 B(  3-C , 15-C ) :   0.4771
B(  3-C , 16-C ) :   0.1046 B(  3-C , 17-C ) :   0.2421 B(  4-C ,  5-C ) :   0.1788
B(  4-C ,  6-C ) :   0.1890 B(  4-C ,  7-C ) :   0.1663 B(  4-C ,  9-C ) :   0.3415
B(  4-C , 10-C ) :  -0.3286 B(  4-C , 11-S ) :   0.4419 B(  4-C , 12-O ) :   0.1504
B(  4-C , 13-O ) :   0.1513 B(  4-C , 15-C ) :  -0.1616 B(  4-C , 18-C ) :   0.2159
B(  4-C , 19-C ) :   0.2515 B(  5-C ,  6-C ) :   0.2237 B(  5-C ,  7-C ) :  -0.2262
B(  5-C ,  9-C ) :  -0.1922 B(  5-C , 10-C ) :   0.5810 B(  5-C , 11-S ) :  -0.1995
B(  5-C , 19-C ) :   0.1490 B(  5-C , 26-H ) :  -0.1376 B(  6-C ,  7-C ) :   1.2789
B(  6-C ,  8-C ) :   0.1069 B(  6-C , 26-H ) :   1.1143 B(  7-C ,  8-C ) :   1.2202
B(  7-C ,  9-C ) :   0.1329 B(  7-C , 10-C ) :  -0.1437 B(  7-C , 27-H ) :   0.9267
B(  8-C ,  9-C ) :   1.0169 B(  8-C , 10-C ) :  -0.2183 B(  8-C , 28-H ) :   1.0101
B(  9-C , 10-C ) :   0.5246 B(  9-C , 29-H ) :   1.0831 B( 10-C , 14-C ) :  -0.1854
B( 11-S , 12-O ) :   1.0815 B( 11-S , 13-O ) :   1.0692 B( 11-S , 14-C ) :   0.5478
B( 12-O , 13-O ) :   0.1454 B( 14-C , 15-C ) :   0.2681 B( 14-C , 16-C ) :  -0.1137
B( 14-C , 18-C ) :  -0.6215 B( 14-C , 19-C ) :   0.9897 B( 15-C , 16-C ) :   0.9425
B( 15-C , 17-C ) :   0.2451 B( 15-C , 19-C ) :   0.3258 B( 15-C , 30-H ) :   0.9728
B( 16-C , 17-C ) :   1.1778 B( 16-C , 31-H ) :   0.9698 B( 17-C , 18-C ) :   1.3227
B( 17-C , 19-C ) :  -0.3807 B( 17-C , 32-H ) :   0.9636 B( 18-C , 19-C ) :   0.6807
B( 18-C , 33-H ) :   1.1062

MP2 TOTAL ENERGY:    -1204.387406570 Eh

-----------------------------------------------------------------------------
         ABSORPTION SPECTRUM VIA TRANSITION ELECTRIC DIPOLE MOMENTS
-----------------------------------------------------------------------------
State   Energy    Wavelength  fosc         T2        TX        TY        TZ
        (cm-1)      (nm)                 (au**2)    (au)      (au)      (au)
-----------------------------------------------------------------------------
   1   28929.4    345.7   0.465695101   5.29953  -2.20910   0.26411  -0.59130
   2   35302.3    283.3   0.079047163   0.73716  -0.82615   0.09519  -0.21348
   3   35817.2    279.2   0.007176498   0.06596  -0.01620   0.19063  -0.17135
   4   41151.2    243.0   0.366929608   2.93546   1.46948  -0.52500   0.70743
   5   43896.7    227.8   0.003343681   0.02508  -0.08476   0.12626   0.04416
   6   40789.7    245.2   0.357139833   2.88246  -1.12323   0.84521  -0.95206
   7   41442.6    241.3   0.023041155   0.18303  -0.15197  -0.31276   0.24925
   8   40732.5    245.5   0.000915267   0.00740  -0.00493   0.03674   0.07761
   9   46996.6    212.8   0.000348238   0.00244   0.01725  -0.04209  -0.01925
  10   45436.4    220.1   0.172585650   1.25048  -0.77779   0.52924  -0.60451

Dispersion correction           -0.041436221
FINAL SINGLE POINT ENERGY     -1203.174164697171

DIPOLE MOMENT
-------------
                                X             Y             Z
Electronic contribution:      7.60323      10.81460      -8.59152
Nuclear contribution   :     -7.72346     -13.39781      10.95705
                        -----------------------------------------
Total Dipole Moment    :     -0.12023      -2.58321       2.36552
                        -----------------------------------------
Magnitude (a.u.)       :      3.50473
Magnitude (Debye)      :      8.90832

Rotational constants in cm-1:     0.019539     0.009177     0.006762
Rotational constants in MHz :   585.752776   275.122145   202.729356

                             ****ORCA TERMINATED NORMALLY****
TOTAL RUN TIME: 0 days 9 hours 30 minutes 21 seconds 123 msec
