                         Program Version 5.0.2 -  RELEASE  -
|  1> ! pbe0 d3bj aug-cc-PVTZ RIJCOSX Opt
|  2> %maxcore 4000
|  3> %basis
|  4>  AuxJ "aug-cc-PVTZ/JK"
|  5>  AuxC "aug-cc-PVTZ/C"
|  6>  newGTO H "cc-PVTZ" end
|  7>  newAuxJGTO H "cc-PVTZ/JK" end
|  8>  newAuxCGTO H "cc-PVTZ/C" end
|  9> end
| 10> %cpcm
| 11>  SMD true
| 12>  SMDsolvent "dichloromethane"
| 13> end
| 14> %pal nprocs 4 end
| 15> * xyz 0 1
| 16> C         -1.00590       -0.61600        2.10610
| 17> C         -0.82430       -0.80940        0.59740
| 18> C         -0.70850       -2.29480        0.24150
| 19> C          0.35590       -0.01940        0.07520
| 20> C         -0.04950        0.90770       -0.82140
| 21> C         -1.47290        0.86060       -1.00630
| 22> C         -2.32270        1.60350       -1.80920
| 23> C         -3.67690        1.31370       -1.76610
| 24> C         -4.16430        0.30930       -0.94260
| 25> C         -3.31160       -0.43630       -0.13640
| 26> C         -1.96300       -0.16070       -0.16770
| 27> S          1.35280        1.83120       -1.42690
| 28> O          1.59060        1.57500       -2.82150
| 29> O          1.30250        3.20400       -1.00210
| 30> C          2.48960        0.88190       -0.39640
| 31> C          3.85070        1.01580       -0.30260
| 32> C          4.54150        0.17220        0.56280
| 33> C          3.85550       -0.77500        1.30520
| 34> C          2.47840       -0.90500        1.20540
| 35> C          1.77630       -0.06850        0.34410
| 36> H         -1.08770        0.44300        2.33950
| 37> H         -0.16070       -1.02730        2.65140
| 38> H         -1.91260       -1.11600        2.43770
| 39> H         -1.61150       -2.81990        0.54310
| 40> H         -0.57990       -2.41280       -0.83180
| 41> H          0.14240       -2.74600        0.74480
| 42> H         -1.93030        2.38170       -2.44500
| 43> H         -4.36340        1.87620       -2.38110
| 44> H         -5.22420        0.10230       -0.92680
| 45> H         -3.70880       -1.21460        0.49870
| 46> H          4.36320        1.76090       -0.89060
| 47> H          5.61340        0.25730        0.65470
| 48> H          4.40100       -1.42460        1.97380
| 49> H          1.96480       -1.64980        1.79320
| 50> *
| 51>
| 52>
| 53> $new_job
| 54> ! b2gp-plyp aug-cc-PVTZ RIJCOSX SP
| 55> %maxcore 4000
| 56> %basis
| 57>  AuxJ "aug-cc-PVTZ/JK"
| 58>  AuxC "aug-cc-PVTZ/C"
| 59>  newGTO H "cc-PVTZ" end
| 60>  newAuxJGTO H "cc-PVTZ/JK" end
| 61>  newAuxCGTO H "cc-PVTZ/C" end
| 62> end
| 63> %cpcm
| 64>  SMD true
| 65>  SMDsolvent "dichloromethane"
| 66> end
| 67> %pal nprocs 4 end
| 68> %tddft
| 69>  nroots 10
| 70>  maxdim 7
| 71> end
| 72> * xyzfile 0 1
| 73>
| 74>                          ****END OF INPUT****
 Total Charge           Charge          ....    0
 Multiplicity           Mult            ....    1
 Number of Electrons    NEL             ....  148
Dispersion correction           -0.046118223
FINAL SINGLE POINT ENERGY     -1204.134529521297
Dispersion correction            ... done
Dispersion correction           -0.046073599
FINAL SINGLE POINT ENERGY     -1204.136038263521
Dispersion correction            ... done
Dispersion correction           -0.046044334
FINAL SINGLE POINT ENERGY     -1204.136528849151
Dispersion correction            ... done
FINAL SINGLE POINT ENERGY     -1204.136543703193
Dispersion correction            ... done
Dispersion correction           -0.046044088
FINAL SINGLE POINT ENERGY     -1204.136548498833
Dispersion correction            ... done
                    ***********************HURRAY********************
Dispersion correction           -0.046044080
FINAL SINGLE POINT ENERGY     -1204.136549169279

CARTESIAN COORDINATES (ANGSTROEM)
---------------------------------
  C     -1.018587   -0.651970    2.106961
  C     -0.837927   -0.820937    0.596430
  C     -0.722904   -2.304787    0.233730
  C      0.352960   -0.047700    0.091268
  C     -0.033113    0.872833   -0.812000
  C     -1.463701    0.859579   -1.018661
  C     -2.305641    1.612722   -1.823636
  C     -3.667710    1.343460   -1.773605
  C     -4.167795    0.348227   -0.940500
  C     -3.317224   -0.407305   -0.135422
  C     -1.962316   -0.150813   -0.175364
  S      1.343227    1.781469   -1.420159
  O      1.589602    1.502123   -2.827736
  O      1.276616    3.179522   -1.020240
  C      2.477087    0.867575   -0.385208
  C      3.836922    1.042024   -0.315232
  C      4.546517    0.214206    0.555022
  C      3.884499   -0.741881    1.310944
  C      2.503966   -0.903151    1.226096
  C      1.783666   -0.088191    0.366113
  H     -1.091208    0.401830    2.380707
  H     -0.178488   -1.093960    2.645039
  H     -1.932559   -1.155970    2.426098
  H     -1.631284   -2.829252    0.535451
  H     -0.587180   -2.438090   -0.840824
  H      0.123868   -2.759848    0.750089
  H     -1.915712    2.389859   -2.469716
  H     -4.349196    1.917491   -2.389888
  H     -5.234267    0.158483   -0.916692
  H     -3.719346   -1.180028    0.510018
  H      4.343285    1.791570   -0.910983
  H      5.620700    0.321688    0.638168
  H      4.450989   -1.376585    1.981429
  H      2.002156   -1.653992    1.822402

 Multiplicity           Mult            ....    1
 Number of Electrons    NEL             ....  148
 Basis Dimension        Dim             .... 1120

ORBITAL ENERGIES
----------------

  NO   OCC          E(Eh)            E(eV)
   0   2.0000     -90.856181     -2472.3224
   1   2.0000     -19.940003      -542.5951
   2   2.0000     -19.939812      -542.5899
   3   2.0000     -10.819735      -294.4200
   4   2.0000     -10.817770      -294.3665
   5   2.0000     -10.816564      -294.3337
   6   2.0000     -10.812590      -294.2255
   7   2.0000     -10.807246      -294.0801
   8   2.0000     -10.805481      -294.0321
   9   2.0000     -10.800128      -293.8864
  10   2.0000     -10.797096      -293.8039
  11   2.0000     -10.795817      -293.7691
  12   2.0000     -10.793901      -293.7170
  13   2.0000     -10.788457      -293.5688
  14   2.0000     -10.784399      -293.4584
  15   2.0000     -10.781633      -293.3832
  16   2.0000     -10.780673      -293.3570
  17   2.0000     -10.779680      -293.3300
  18   2.0000     -10.765989      -292.9574
  19   2.0000     -10.765735      -292.9505
  20   2.0000      -8.712298      -237.0737
  21   2.0000      -6.518957      -177.3898
  22   2.0000      -6.518400      -177.3747
  23   2.0000      -6.518264      -177.3710
  24   2.0000      -1.312330       -35.7103
  25   2.0000      -1.199630       -32.6436
  26   2.0000      -1.097270       -29.8582
  27   2.0000      -1.058385       -28.8001
  28   2.0000      -1.011260       -27.5178
  29   2.0000      -0.975670       -26.5493
  30   2.0000      -0.938091       -25.5267
  31   2.0000      -0.933653       -25.4060
  32   2.0000      -0.898844       -24.4588
  33   2.0000      -0.875395       -23.8207
  34   2.0000      -0.841522       -22.8990
  35   2.0000      -0.834509       -22.7081
  36   2.0000      -0.779574       -21.2133
  37   2.0000      -0.769731       -20.9455
  38   2.0000      -0.734025       -19.9738
  39   2.0000      -0.715773       -19.4772
  40   2.0000      -0.695978       -18.9385
  41   2.0000      -0.680668       -18.5219
  42   2.0000      -0.630289       -17.1510
  43   2.0000      -0.622051       -16.9269
  44   2.0000      -0.604778       -16.4568
  45   2.0000      -0.589557       -16.0427
  46   2.0000      -0.577530       -15.7154
  47   2.0000      -0.566185       -15.4067
  48   2.0000      -0.560559       -15.2536
  49   2.0000      -0.556888       -15.1537
  50   2.0000      -0.551813       -15.0156
  51   2.0000      -0.533885       -14.5277
  52   2.0000      -0.533428       -14.5153
  53   2.0000      -0.532377       -14.4867
  54   2.0000      -0.509499       -13.8642
  55   2.0000      -0.492960       -13.4141
  56   2.0000      -0.480267       -13.0687
  57   2.0000      -0.477479       -12.9929
  58   2.0000      -0.474578       -12.9139
  59   2.0000      -0.465726       -12.6730
  60   2.0000      -0.463969       -12.6252
  61   2.0000      -0.455541       -12.3959
  62   2.0000      -0.440905       -11.9976
  63   2.0000      -0.432678       -11.7738
  64   2.0000      -0.432297       -11.7634
  65   2.0000      -0.423479       -11.5234
  66   2.0000      -0.420468       -11.4415
  67   2.0000      -0.408701       -11.1213
  68   2.0000      -0.385375       -10.4866
  69   2.0000      -0.381914       -10.3924
  70   2.0000      -0.335721        -9.1354
  71   2.0000      -0.329698        -8.9716
  72   2.0000      -0.308820        -8.4034
  73   2.0000      -0.264739        -7.2039
  74   0.0000      -0.014350        -0.3905
  75   0.0000       0.024396         0.6639
  76   0.0000       0.029633         0.8064
  77   0.0000       0.031621         0.8605
  78   0.0000       0.035315         0.9610

MULLIKEN ATOMIC CHARGES
-----------------------
   0 C :   -0.598306
   1 C :    0.269521
   2 C :   -0.563103
   3 C :   -0.288429
   4 C :   -0.386844
   5 C :    1.209722
   6 C :   -1.083196
   7 C :   -0.522686
   8 C :   -0.476894
   9 C :   -0.835907
  10 C :    1.052339
  11 S :    1.705550
  12 O :   -1.081733
  13 O :   -1.083234
  14 C :    1.201605
  15 C :   -0.989724
  16 C :   -0.254087
  17 C :   -0.653225
  18 C :   -0.864009
  19 C :    1.356846
  20 H :    0.218227
  21 H :    0.186524
  22 H :    0.175977
  23 H :    0.179099
  24 H :    0.218689
  25 H :    0.186164
  26 H :    0.175301
  27 H :    0.266065
  28 H :    0.220942
  29 H :    0.168998
  30 H :    0.228460
  31 H :    0.246177
  32 H :    0.244603
  33 H :    0.170566
Sum of atomic charges:    0.0000000

LOEWDIN ATOMIC CHARGES
----------------------
   0 C :    0.080946
   1 C :   -0.729976
   2 C :    0.082155
   3 C :   -0.214213
   4 C :   -0.208779
   5 C :   -0.247556
   6 C :   -0.005215
   7 C :   -0.122692
   8 C :   -0.118180
   9 C :   -0.015721
  10 C :   -0.292643
  11 S :    0.237825
  12 O :    0.022040
  13 O :    0.021924
  14 C :   -0.340128
  15 C :   -0.035141
  16 C :   -0.096347
  17 C :   -0.093912
  18 C :   -0.000612
  19 C :   -0.264808
  20 H :    0.146769
  21 H :    0.144618
  22 H :    0.145075
  23 H :    0.144718
  24 H :    0.147531
  25 H :    0.144811
  26 H :    0.187678
  27 H :    0.172070
  28 H :    0.171232
  29 H :    0.194758
  30 H :    0.191349
  31 H :    0.175254
  32 H :    0.177252
  33 H :    0.197919

  Mayer bond orders larger than 0.100000
B(  0-C ,  1-C ) :   0.6212 B(  0-C ,  3-C ) :   0.2736 B(  0-C , 10-C ) :   0.1518
B(  0-C , 20-H ) :   0.9462 B(  0-C , 21-H ) :   0.9847 B(  0-C , 22-H ) :   0.9952
B(  1-C ,  2-C ) :   0.6846 B(  1-C ,  3-C ) :   1.0123 B(  1-C ,  4-C ) :   0.4591
B(  1-C ,  5-C ) :   0.4396 B(  1-C ,  6-C ) :  -0.1543 B(  1-C ,  7-C ) :   0.2017
B(  1-C ,  9-C ) :   0.1997 B(  1-C , 10-C ) :   0.8540 B(  1-C , 11-S ) :  -0.1801
B(  2-C ,  3-C ) :   0.2357 B(  2-C , 10-C ) :   0.1213 B(  2-C , 19-C ) :  -0.1034
B(  2-C , 23-H ) :   0.9866 B(  2-C , 24-H ) :   0.9448 B(  2-C , 25-H ) :   0.9764
B(  3-C ,  4-C ) :   1.4585 B(  3-C ,  5-C ) :  -0.4197 B(  3-C ,  6-C ) :   0.2865
B(  3-C ,  7-C ) :  -0.2035 B(  3-C ,  9-C ) :  -0.4106 B(  3-C , 10-C ) :   0.1771
B(  3-C , 11-S ) :   0.8247 B(  3-C , 14-C ) :  -0.3154 B(  3-C , 15-C ) :   0.5065
B(  3-C , 16-C ) :   0.1061 B(  3-C , 17-C ) :   0.2730 B(  3-C , 19-C ) :   0.1179
B(  4-C ,  5-C ) :   0.2432 B(  4-C ,  6-C ) :   0.1498 B(  4-C ,  7-C ) :   0.1603
B(  4-C ,  9-C ) :   0.3513 B(  4-C , 10-C ) :  -0.3462 B(  4-C , 11-S ) :   0.3872
B(  4-C , 12-O ) :   0.1350 B(  4-C , 13-O ) :   0.1421 B(  4-C , 14-C ) :   0.1335
B(  4-C , 15-C ) :  -0.1703 B(  4-C , 18-C ) :   0.2344 B(  4-C , 19-C ) :   0.2225
B(  5-C ,  6-C ) :   0.1789 B(  5-C ,  7-C ) :  -0.2362 B(  5-C ,  9-C ) :  -0.1464
B(  5-C , 10-C ) :   0.6096 B(  5-C , 11-S ) :  -0.2064 B(  5-C , 19-C ) :   0.1495
B(  5-C , 26-H ) :  -0.1421 B(  6-C ,  7-C ) :   1.2667 B(  6-C ,  8-C ) :   0.1023
B(  6-C , 26-H ) :   1.1129 B(  7-C ,  8-C ) :   1.2118 B(  7-C ,  9-C ) :   0.1356
B(  7-C , 10-C ) :  -0.1325 B(  7-C , 27-H ) :   0.9301 B(  8-C ,  9-C ) :   1.0116
B(  8-C , 10-C ) :  -0.2248 B(  8-C , 28-H ) :   1.0218 B(  9-C , 10-C ) :   0.4701
B(  9-C , 29-H ) :   1.0871 B( 10-C , 14-C ) :  -0.1901 B( 11-S , 12-O ) :   1.1174
B( 11-S , 13-O ) :   1.1032 B( 11-S , 14-C ) :   0.5521 B( 12-O , 13-O ) :   0.1383
B( 14-C , 15-C ) :   0.2312 B( 14-C , 16-C ) :  -0.1062 B( 14-C , 18-C ) :  -0.6106
B( 14-C , 19-C ) :   1.0519 B( 15-C , 16-C ) :   0.9353 B( 15-C , 17-C ) :   0.2434
B( 15-C , 19-C ) :   0.3158 B( 15-C , 30-H ) :   0.9724 B( 16-C , 17-C ) :   1.1601
B( 16-C , 31-H ) :   0.9768 B( 17-C , 18-C ) :   1.3267 B( 17-C , 19-C ) :  -0.4199
B( 17-C , 32-H ) :   0.9694 B( 18-C , 19-C ) :   0.6419 B( 18-C , 33-H ) :   1.1095

MP2 TOTAL ENERGY:    -1204.192386045 Eh

-----------------------------------------------------------------------------
         ABSORPTION SPECTRUM VIA TRANSITION ELECTRIC DIPOLE MOMENTS
-----------------------------------------------------------------------------
State   Energy    Wavelength  fosc         T2        TX        TY        TZ
        (cm-1)      (nm)                 (au**2)    (au)      (au)      (au)
-----------------------------------------------------------------------------
   1   29792.7    335.7   0.473610146   5.23343  -2.18983   0.27786  -0.60072
   2   36402.1    274.7   0.069018734   0.62419  -0.74621   0.12507  -0.22741
   3   37244.5    268.5   0.004229009   0.03738   0.11024   0.12743  -0.09482
   4   42862.7    233.3   0.274328972   2.10701   1.26109  -0.42286   0.58125
   5   45082.1    221.8   0.002657833   0.01941   0.04168  -0.10128  -0.08611
   6   42166.2    237.2   0.514525192   4.01715   1.30807  -1.01532   1.12926
   7   43762.8    228.5   0.023379623   0.17588   0.32820   0.22109  -0.13886
   8   48226.1    207.4   0.000487021   0.00332   0.00879  -0.04360  -0.03669
   9   42510.8    235.2   0.000894881   0.00693   0.01457  -0.04876  -0.06588
  10   46295.6    216.0   0.357471502   2.54201  -1.18543   0.69048  -0.81241

Dispersion correction           -0.031681870
FINAL SINGLE POINT ENERGY     -1202.671060168924

DIPOLE MOMENT
-------------
                                X             Y             Z
Electronic contribution:      7.62320      10.77728      -8.55344
Nuclear contribution   :     -7.72354     -13.39760      10.95663
                        -----------------------------------------
Total Dipole Moment    :     -0.10034      -2.62031       2.40319
                        -----------------------------------------
Magnitude (a.u.)       :      3.55689
Magnitude (Debye)      :      9.04089

Rotational constants in cm-1:     0.019539     0.009177     0.006762
Rotational constants in MHz :   585.759230   275.119970   202.729006

                             ****ORCA TERMINATED NORMALLY****
TOTAL RUN TIME: 0 days 5 hours 59 minutes 0 seconds 43 msec
