                         Program Version 5.0.2 -  RELEASE  -
|  1> ! pbe0 aug-cc-PVTZ RIJCOSX Opt
|  2> %maxcore 4000
|  3> %basis
|  4>  AuxJ "aug-cc-PVTZ/JK"
|  5>  AuxC "aug-cc-PVTZ/C"
|  6>  newGTO H "cc-PVTZ" end
|  7>  newAuxJGTO H "cc-PVTZ/JK" end
|  8>  newAuxCGTO H "cc-PVTZ/C" end
|  9> end
| 10> %cpcm
| 11>  SMD true
| 12>  SMDsolvent "dichloromethane"
| 13> end
| 14> %pal nprocs 4 end
| 15> * xyz 0 1
| 16> C         -1.00590       -0.61600        2.10610
| 17> C         -0.82430       -0.80940        0.59740
| 18> C         -0.70850       -2.29480        0.24150
| 19> C          0.35590       -0.01940        0.07520
| 20> C         -0.04950        0.90770       -0.82140
| 21> C         -1.47290        0.86060       -1.00630
| 22> C         -2.32270        1.60350       -1.80920
| 23> C         -3.67690        1.31370       -1.76610
| 24> C         -4.16430        0.30930       -0.94260
| 25> C         -3.31160       -0.43630       -0.13640
| 26> C         -1.96300       -0.16070       -0.16770
| 27> S          1.35280        1.83120       -1.42690
| 28> O          1.59060        1.57500       -2.82150
| 29> O          1.30250        3.20400       -1.00210
| 30> C          2.48960        0.88190       -0.39640
| 31> C          3.85070        1.01580       -0.30260
| 32> C          4.54150        0.17220        0.56280
| 33> C          3.85550       -0.77500        1.30520
| 34> C          2.47840       -0.90500        1.20540
| 35> C          1.77630       -0.06850        0.34410
| 36> H         -1.08770        0.44300        2.33950
| 37> H         -0.16070       -1.02730        2.65140
| 38> H         -1.91260       -1.11600        2.43770
| 39> H         -1.61150       -2.81990        0.54310
| 40> H         -0.57990       -2.41280       -0.83180
| 41> H          0.14240       -2.74600        0.74480
| 42> H         -1.93030        2.38170       -2.44500
| 43> H         -4.36340        1.87620       -2.38110
| 44> H         -5.22420        0.10230       -0.92680
| 45> H         -3.70880       -1.21460        0.49870
| 46> H          4.36320        1.76090       -0.89060
| 47> H          5.61340        0.25730        0.65470
| 48> H          4.40100       -1.42460        1.97380
| 49> H          1.96480       -1.64980        1.79320
| 50> *
| 51>
| 52>
| 53> $new_job
| 54> ! pbe0 aug-cc-PVTZ RIJCOSX SP
| 55> %maxcore 4000
| 56> %basis
| 57>  AuxJ "aug-cc-PVTZ/JK"
| 58>  AuxC "aug-cc-PVTZ/C"
| 59>  newGTO H "cc-PVTZ" end
| 60>  newAuxJGTO H "cc-PVTZ/JK" end
| 61>  newAuxCGTO H "cc-PVTZ/C" end
| 62> end
| 63> %cpcm
| 64>  SMD true
| 65>  SMDsolvent "dichloromethane"
| 66> end
| 67> %pal nprocs 4 end
| 68> %tddft
| 69>  nroots 10
| 70>  maxdim 7
| 71> end
| 72> * xyzfile 0 1
| 73>
| 74>                          ****END OF INPUT****
 Total Charge           Charge          ....    0
 Multiplicity           Mult            ....    1
 Number of Electrons    NEL             ....  148
FINAL SINGLE POINT ENERGY     -1204.088411340441
FINAL SINGLE POINT ENERGY     -1204.089994462910
FINAL SINGLE POINT ENERGY     -1204.090501387578
FINAL SINGLE POINT ENERGY     -1204.090519615269
FINAL SINGLE POINT ENERGY     -1204.090523881387
                    ***********************HURRAY********************
FINAL SINGLE POINT ENERGY     -1204.090525508443

CARTESIAN COORDINATES (ANGSTROEM)
---------------------------------
  C     -1.022138   -0.654997    2.108884
  C     -0.838465   -0.821573    0.596932
  C     -0.726451   -2.307510    0.235486
  C      0.353345   -0.047413    0.091273
  C     -0.032916    0.872773   -0.811554
  C     -1.463650    0.860225   -1.018992
  C     -2.306263    1.613548   -1.824335
  C     -3.668348    1.344823   -1.774894
  C     -4.168535    0.349589   -0.941726
  C     -3.317765   -0.405643   -0.136775
  C     -1.961752   -0.149809   -0.175971
  S      1.344668    1.781730   -1.420394
  O      1.590774    1.502918   -2.828455
  O      1.278508    3.180484   -1.021692
  C      2.479199    0.868345   -0.385721
  C      3.839627    1.043471   -0.316202
  C      4.550507    0.216506    0.553637
  C      3.888863   -0.739695    1.309932
  C      2.508344   -0.901348    1.225432
  C      1.785833   -0.086964    0.365358
  H     -1.095063    0.397791    2.387239
  H     -0.184377   -1.099447    2.649012
  H     -1.937085   -1.159251    2.425654
  H     -1.636215   -2.829937    0.537444
  H     -0.590331   -2.445285   -0.838667
  H      0.118036   -2.765434    0.753501
  H     -1.917351    2.391015   -2.470955
  H     -4.349569    1.919156   -2.391526
  H     -5.235170    0.159605   -0.917788
  H     -3.721490   -1.178198    0.508251
  H      4.345976    1.793181   -0.912159
  H      5.624858    0.324680    0.636222
  H      4.455650   -1.374304    1.980594
  H      2.008644   -1.652831    1.823056

 Multiplicity           Mult            ....    1
 Number of Electrons    NEL             ....  148
 Basis Dimension        Dim             .... 1120

ORBITAL ENERGIES
----------------

  NO   OCC          E(Eh)            E(eV)
   0   2.0000     -89.252393     -2428.6811
   1   2.0000     -19.210707      -522.7499
   2   2.0000     -19.210542      -522.7454
   3   2.0000     -10.269294      -279.4417
   4   2.0000     -10.267097      -279.3819
   5   2.0000     -10.264693      -279.3165
   6   2.0000     -10.263741      -279.2906
   7   2.0000     -10.262453      -279.2555
   8   2.0000     -10.253568      -279.0138
   9   2.0000     -10.252019      -278.9716
  10   2.0000     -10.246535      -278.8224
  11   2.0000     -10.244655      -278.7712
  12   2.0000     -10.243740      -278.7463
  13   2.0000     -10.241753      -278.6923
  14   2.0000     -10.235172      -278.5132
  15   2.0000     -10.232821      -278.4492
  16   2.0000     -10.231892      -278.4239
  17   2.0000     -10.231036      -278.4006
  18   2.0000     -10.217781      -278.0399
  19   2.0000     -10.217492      -278.0321
  20   2.0000      -8.184297      -222.7060
  21   2.0000      -6.120998      -166.5608
  22   2.0000      -6.120548      -166.5486
  23   2.0000      -6.120482      -166.5468
  24   2.0000      -1.144281       -31.1375
  25   2.0000      -1.036124       -28.1944
  26   2.0000      -0.948259       -25.8034
  27   2.0000      -0.913047       -24.8453
  28   2.0000      -0.870675       -23.6923
  29   2.0000      -0.840108       -22.8605
  30   2.0000      -0.805059       -21.9068
  31   2.0000      -0.799798       -21.7636
  32   2.0000      -0.768925       -20.9235
  33   2.0000      -0.748441       -20.3661
  34   2.0000      -0.721592       -19.6355
  35   2.0000      -0.712468       -19.3872
  36   2.0000      -0.667010       -18.1503
  37   2.0000      -0.658003       -17.9052
  38   2.0000      -0.625666       -17.0252
  39   2.0000      -0.609786       -16.5931
  40   2.0000      -0.593763       -16.1571
  41   2.0000      -0.580685       -15.8012
  42   2.0000      -0.538926       -14.6649
  43   2.0000      -0.528814       -14.3898
  44   2.0000      -0.512637       -13.9496
  45   2.0000      -0.499087       -13.5808
  46   2.0000      -0.488865       -13.3027
  47   2.0000      -0.478691       -13.0258
  48   2.0000      -0.473272       -12.8784
  49   2.0000      -0.470569       -12.8048
  50   2.0000      -0.463829       -12.6214
  51   2.0000      -0.456876       -12.4322
  52   2.0000      -0.449836       -12.2407
  53   2.0000      -0.448380       -12.2010
  54   2.0000      -0.427189       -11.6244
  55   2.0000      -0.421218       -11.4619
  56   2.0000      -0.402415       -10.9503
  57   2.0000      -0.398763       -10.8509
  58   2.0000      -0.394085       -10.7236
  59   2.0000      -0.393126       -10.6975
  60   2.0000      -0.386596       -10.5198
  61   2.0000      -0.377259       -10.2657
  62   2.0000      -0.365212        -9.9379
  63   2.0000      -0.360436        -9.8080
  64   2.0000      -0.354944        -9.6585
  65   2.0000      -0.349137        -9.5005
  66   2.0000      -0.347737        -9.4624
  67   2.0000      -0.338181        -9.2024
  68   2.0000      -0.321741        -8.7550
  69   2.0000      -0.310648        -8.4531
  70   2.0000      -0.295105        -8.0302
  71   2.0000      -0.286223        -7.7885
  72   2.0000      -0.270034        -7.3480
  73   2.0000      -0.232789        -6.3345
  74   0.0000      -0.077892        -2.1196
  75   0.0000      -0.036625        -0.9966
  76   0.0000      -0.014799        -0.4027
  77   0.0000      -0.002532        -0.0689
  78   0.0000       0.000722         0.0196

MULLIKEN ATOMIC CHARGES
-----------------------
   0 C :   -0.484627
   1 C :    0.472988
   2 C :   -0.466056
   3 C :   -0.079245
   4 C :   -0.492745
   5 C :    0.875044
   6 C :   -1.013403
   7 C :   -0.435456
   8 C :   -0.424944
   9 C :   -0.766357
  10 C :    0.750439
  11 S :    1.858281
  12 O :   -1.002823
  13 O :   -1.002416
  14 C :    0.888915
  15 C :   -0.886581
  16 C :   -0.232282
  17 C :   -0.607328
  18 C :   -0.829602
  19 C :    1.009554
  20 H :    0.186100
  21 H :    0.161289
  22 H :    0.149682
  23 H :    0.151438
  24 H :    0.186671
  25 H :    0.161153
  26 H :    0.194961
  27 H :    0.266061
  28 H :    0.238658
  29 H :    0.213272
  30 H :    0.251584
  31 H :    0.250024
  32 H :    0.257214
  33 H :    0.200538
Sum of atomic charges:   -0.0000000

LOEWDIN ATOMIC CHARGES
----------------------
   0 C :    0.079519
   1 C :   -0.735205
   2 C :    0.080892
   3 C :   -0.222035
   4 C :   -0.220663
   5 C :   -0.248514
   6 C :   -0.006920
   7 C :   -0.122126
   8 C :   -0.118064
   9 C :   -0.017909
  10 C :   -0.296319
  11 S :    0.212672
  12 O :    0.056017
  13 O :    0.055866
  14 C :   -0.349966
  15 C :   -0.040662
  16 C :   -0.100269
  17 C :   -0.097944
  18 C :   -0.005792
  19 C :   -0.268941
  20 H :    0.148949
  21 H :    0.147328
  22 H :    0.147907
  23 H :    0.147564
  24 H :    0.149687
  25 H :    0.147508
  26 H :    0.189103
  27 H :    0.173578
  28 H :    0.172728
  29 H :    0.196567
  30 H :    0.191965
  31 H :    0.176388
  32 H :    0.177975
  33 H :    0.199117

  Mayer bond orders larger than 0.100000
B(  0-C ,  1-C ) :   0.7219 B(  0-C ,  3-C ) :   0.2376 B(  0-C , 10-C ) :   0.1582
B(  0-C , 20-H ) :   0.9469 B(  0-C , 21-H ) :   0.9614 B(  0-C , 22-H ) :   0.9673
B(  1-C ,  2-C ) :   0.7603 B(  1-C ,  3-C ) :   0.9666 B(  1-C ,  4-C ) :   0.2217
B(  1-C ,  5-C ) :   0.4800 B(  1-C ,  7-C ) :   0.1784 B(  1-C , 10-C ) :   0.7589
B(  2-C ,  3-C ) :   0.2168 B(  2-C , 10-C ) :   0.1388 B(  2-C , 23-H ) :   0.9619
B(  2-C , 24-H ) :   0.9461 B(  2-C , 25-H ) :   0.9574 B(  3-C ,  4-C ) :   1.5050
B(  3-C ,  5-C ) :  -0.3539 B(  3-C ,  6-C ) :   0.1635 B(  3-C ,  7-C ) :  -0.1505
B(  3-C ,  9-C ) :  -0.2956 B(  3-C , 10-C ) :   0.2288 B(  3-C , 11-S ) :   0.4648
B(  3-C , 14-C ) :  -0.3579 B(  3-C , 15-C ) :   0.4053 B(  3-C , 16-C ) :   0.1001
B(  3-C , 17-C ) :   0.1356 B(  3-C , 19-C ) :   0.3714 B(  4-C ,  5-C ) :   0.4013
B(  4-C ,  6-C ) :   0.1564 B(  4-C ,  7-C ) :   0.1185 B(  4-C ,  9-C ) :   0.2905
B(  4-C , 10-C ) :  -0.3738 B(  4-C , 11-S ) :   0.6528 B(  4-C , 12-O ) :   0.2262
B(  4-C , 13-O ) :   0.2108 B(  4-C , 14-C ) :   0.1177 B(  4-C , 15-C ) :  -0.1570
B(  4-C , 18-C ) :   0.1578 B(  5-C ,  6-C ) :   0.6373 B(  5-C ,  7-C ) :  -0.1458
B(  5-C ,  9-C ) :  -0.1656 B(  5-C , 10-C ) :   0.6715 B(  5-C , 11-S ) :  -0.1424
B(  5-C , 19-C ) :   0.1887 B(  6-C ,  7-C ) :   1.3627 B(  6-C ,  8-C ) :   0.1275
B(  6-C , 10-C ) :  -0.1776 B(  6-C , 26-H ) :   0.9886 B(  7-C ,  8-C ) :   1.3290
B(  7-C ,  9-C ) :   0.1400 B(  7-C , 10-C ) :  -0.1786 B(  7-C , 27-H ) :   0.8680
B(  8-C ,  9-C ) :   1.1775 B(  8-C , 10-C ) :  -0.2173 B(  8-C , 28-H ) :   0.9223
B(  9-C , 10-C ) :   0.8509 B(  9-C , 29-H ) :   0.9268 B( 10-C , 14-C ) :  -0.1141
B( 11-S , 12-O ) :   1.0172 B( 11-S , 13-O ) :   1.0099 B( 11-S , 14-C ) :   0.5682
B( 12-O , 13-O ) :   0.1425 B( 14-C , 15-C ) :   0.6021 B( 14-C , 16-C ) :  -0.1466
B( 14-C , 18-C ) :  -0.6024 B( 14-C , 19-C ) :   1.0514 B( 15-C , 16-C ) :   1.0765
B( 15-C , 17-C ) :   0.2213 B( 15-C , 19-C ) :   0.3312 B( 15-C , 30-H ) :   0.8526
B( 16-C , 17-C ) :   1.3010 B( 16-C , 31-H ) :   0.9036 B( 17-C , 18-C ) :   1.4088
B( 17-C , 19-C ) :  -0.1861 B( 17-C , 32-H ) :   0.8881 B( 18-C , 19-C ) :   0.9122
B( 18-C , 33-H ) :   0.9807

-----------------------------------------------------------------------------
         ABSORPTION SPECTRUM VIA TRANSITION ELECTRIC DIPOLE MOMENTS
-----------------------------------------------------------------------------
State   Energy    Wavelength  fosc         T2        TX        TY        TZ
        (cm-1)      (nm)                 (au**2)    (au)      (au)      (au)
-----------------------------------------------------------------------------
   1   28423.9    351.8   0.435732860   5.04676   2.16858  -0.21943   0.54395
   2   35228.1    283.9   0.033536683   0.31341  -0.51276  -0.20135   0.09967
   3   35703.4    280.1   0.114852822   1.05903   0.94459  -0.22015   0.34396
   4   40238.3    248.5   0.575047529   4.70479  -1.79653   0.74387  -0.96121
   5   40490.7    247.0   0.000564274   0.00459  -0.00538   0.04627   0.04918
   6   40947.8    244.2   0.037967033   0.30525  -0.44067   0.20829  -0.26015
   7   41134.6    243.1   0.018930429   0.15151  -0.04884  -0.29096   0.25389
   8   44537.1    224.5   0.000792878   0.00586   0.02533  -0.04860  -0.05345
   9   45194.1    221.3   0.050395595   0.36710   0.38987   0.36919  -0.28073
  10   46236.5    216.3   0.036840488   0.26231  -0.14091  -0.37753   0.31611

FINAL SINGLE POINT ENERGY     -1203.961016954900

DIPOLE MOMENT
-------------
                                X             Y             Z
Electronic contribution:      7.56277      10.95435      -8.72742
Nuclear contribution   :     -7.74756     -13.41621      10.96966
                        -----------------------------------------
Total Dipole Moment    :     -0.18479      -2.46185       2.24225
                        -----------------------------------------
Magnitude (a.u.)       :      3.33505
Magnitude (Debye)      :      8.47702

Rotational constants in cm-1:     0.019523     0.009166     0.006754
Rotational constants in MHz :   585.280629   274.785340   202.489005

                             ****ORCA TERMINATED NORMALLY****
TOTAL RUN TIME: 0 days 4 hours 16 minutes 56 seconds 612 msec
