                         Program Version 5.0.2 -  RELEASE  -
|  1> ! wb97x-d3 aug-cc-PVTZ RIJCOSX Opt
|  2> %maxcore 4000
|  3> %basis
|  4>  AuxJ "aug-cc-PVTZ/JK"
|  5>  AuxC "aug-cc-PVTZ/C"
|  6>  newGTO H "cc-PVTZ" end
|  7>  newAuxJGTO H "cc-PVTZ/JK" end
|  8>  newAuxCGTO H "cc-PVTZ/C" end
|  9> end
| 10> %cpcm
| 11>  SMD true
| 12>  SMDsolvent "dichloromethane"
| 13> end
| 14> %pal nprocs 4 end
| 15> * xyz 0 1
| 16> C         -1.00590       -0.61600        2.10610
| 17> C         -0.82430       -0.80940        0.59740
| 18> C         -0.70850       -2.29480        0.24150
| 19> C          0.35590       -0.01940        0.07520
| 20> C         -0.04950        0.90770       -0.82140
| 21> C         -1.47290        0.86060       -1.00630
| 22> C         -2.32270        1.60350       -1.80920
| 23> C         -3.67690        1.31370       -1.76610
| 24> C         -4.16430        0.30930       -0.94260
| 25> C         -3.31160       -0.43630       -0.13640
| 26> C         -1.96300       -0.16070       -0.16770
| 27> S          1.35280        1.83120       -1.42690
| 28> O          1.59060        1.57500       -2.82150
| 29> O          1.30250        3.20400       -1.00210
| 30> C          2.48960        0.88190       -0.39640
| 31> C          3.85070        1.01580       -0.30260
| 32> C          4.54150        0.17220        0.56280
| 33> C          3.85550       -0.77500        1.30520
| 34> C          2.47840       -0.90500        1.20540
| 35> C          1.77630       -0.06850        0.34410
| 36> H         -1.08770        0.44300        2.33950
| 37> H         -0.16070       -1.02730        2.65140
| 38> H         -1.91260       -1.11600        2.43770
| 39> H         -1.61150       -2.81990        0.54310
| 40> H         -0.57990       -2.41280       -0.83180
| 41> H          0.14240       -2.74600        0.74480
| 42> H         -1.93030        2.38170       -2.44500
| 43> H         -4.36340        1.87620       -2.38110
| 44> H         -5.22420        0.10230       -0.92680
| 45> H         -3.70880       -1.21460        0.49870
| 46> H          4.36320        1.76090       -0.89060
| 47> H          5.61340        0.25730        0.65470
| 48> H          4.40100       -1.42460        1.97380
| 49> H          1.96480       -1.64980        1.79320
| 50> *
| 51>
| 52>
| 53> $new_job
| 54> ! wb97x-d3 aug-cc-PVTZ RIJCOSX SP
| 55> %maxcore 4000
| 56> %basis
| 57>  AuxJ "aug-cc-PVTZ/JK"
| 58>  AuxC "aug-cc-PVTZ/C"
| 59>  newGTO H "cc-PVTZ" end
| 60>  newAuxJGTO H "cc-PVTZ/JK" end
| 61>  newAuxCGTO H "cc-PVTZ/C" end
| 62> end
| 63> %cpcm
| 64>  SMD true
| 65>  SMDsolvent "dichloromethane"
| 66> end
| 67> %pal nprocs 4 end
| 68> %tddft
| 69>  nroots 10
| 70>  maxdim 7
| 71> end
| 72> * xyzfile 0 1
| 73>
| 74>                          ****END OF INPUT****
 Total Charge           Charge          ....    0
 Multiplicity           Mult            ....    1
 Number of Electrons    NEL             ....  148
Dispersion correction           -0.017985283
FINAL SINGLE POINT ENERGY     -1204.930545426045
Dispersion correction            ... done
Dispersion correction           -0.017977214
FINAL SINGLE POINT ENERGY     -1204.932284868990
Dispersion correction            ... done
Dispersion correction           -0.017973170
FINAL SINGLE POINT ENERGY     -1204.932813595040
Dispersion correction            ... done
Dispersion correction           -0.017971806
FINAL SINGLE POINT ENERGY     -1204.932833423935
Dispersion correction            ... done
Dispersion correction           -0.017970606
FINAL SINGLE POINT ENERGY     -1204.932837695558
Dispersion correction            ... done
                    ***********************HURRAY********************
Dispersion correction           -0.017970114
FINAL SINGLE POINT ENERGY     -1204.932836610740

CARTESIAN COORDINATES (ANGSTROEM)
---------------------------------
  C     -1.011197   -0.644460    2.108077
  C     -0.841188   -0.825808    0.595113
  C     -0.733130   -2.313254    0.236502
  C      0.351044   -0.053021    0.080412
  C     -0.028956    0.862212   -0.818811
  C     -1.468941    0.850530   -1.025946
  C     -2.306067    1.600181   -1.835752
  C     -3.669459    1.337774   -1.782299
  C     -4.172298    0.353771   -0.938552
  C     -3.323802   -0.400094   -0.131711
  C     -1.966782   -0.150219   -0.178460
  S      1.343813    1.786886   -1.410738
  O      1.602790    1.521264   -2.815369
  O      1.260478    3.177379   -0.999434
  C      2.478816    0.873444   -0.376648
  C      3.838062    1.053171   -0.302862
  C      4.548806    0.220216    0.559177
  C      3.890008   -0.746095    1.303639
  C      2.510179   -0.911380    1.214623
  C      1.791787   -0.090934    0.362384
  H     -1.067465    0.411405    2.375009
  H     -0.174431   -1.093172    2.644237
  H     -1.928320   -1.132058    2.440229
  H     -1.638167   -2.836673    0.546774
  H     -0.607018   -2.450773   -0.837977
  H      0.116221   -2.771014    0.744530
  H     -1.913670    2.367949   -2.490288
  H     -4.347283    1.910980   -2.401751
  H     -5.238958    0.171064   -0.908721
  H     -3.726990   -1.164157    0.522142
  H      4.341966    1.810307   -0.889474
  H      5.621379    0.330751    0.646077
  H      4.459051   -1.385072    1.966271
  H      2.009620   -1.670898    1.799695

 Multiplicity           Mult            ....    1
 Number of Electrons    NEL             ....  148
 Basis Dimension        Dim             .... 1120

ORBITAL ENERGIES
----------------

  NO   OCC          E(Eh)            E(eV)
   0   2.0000     -89.188917     -2426.9538
   1   2.0000     -19.235089      -523.4134
   2   2.0000     -19.234790      -523.4053
   3   2.0000     -10.321905      -280.8733
   4   2.0000     -10.320469      -280.8342
   5   2.0000     -10.318333      -280.7761
   6   2.0000     -10.315976      -280.7120
   7   2.0000     -10.315191      -280.6906
   8   2.0000     -10.306927      -280.4657
   9   2.0000     -10.304530      -280.4005
  10   2.0000     -10.299757      -280.2707
  11   2.0000     -10.297949      -280.2214
  12   2.0000     -10.296621      -280.1853
  13   2.0000     -10.293467      -280.0995
  14   2.0000     -10.287953      -279.9494
  15   2.0000     -10.285630      -279.8862
  16   2.0000     -10.284442      -279.8539
  17   2.0000     -10.283644      -279.8322
  18   2.0000     -10.271354      -279.4977
  19   2.0000     -10.271137      -279.4918
  20   2.0000      -8.236428      -224.1246
  21   2.0000      -6.190297      -168.4466
  22   2.0000      -6.189787      -168.4327
  23   2.0000      -6.189671      -168.4295
  24   2.0000      -1.235468       -33.6188
  25   2.0000      -1.124654       -30.6034
  26   2.0000      -1.041132       -28.3307
  27   2.0000      -1.006402       -27.3856
  28   2.0000      -0.963969       -26.2309
  29   2.0000      -0.933067       -25.3901
  30   2.0000      -0.897598       -24.4249
  31   2.0000      -0.893052       -24.3012
  32   2.0000      -0.861455       -23.4414
  33   2.0000      -0.841321       -22.8935
  34   2.0000      -0.812676       -22.1140
  35   2.0000      -0.806184       -21.9374
  36   2.0000      -0.756669       -20.5900
  37   2.0000      -0.748900       -20.3786
  38   2.0000      -0.715451       -19.4684
  39   2.0000      -0.699607       -19.0373
  40   2.0000      -0.683495       -18.5988
  41   2.0000      -0.670591       -18.2477
  42   2.0000      -0.627052       -17.0630
  43   2.0000      -0.616209       -16.7679
  44   2.0000      -0.599314       -16.3082
  45   2.0000      -0.585385       -15.9291
  46   2.0000      -0.575414       -15.6578
  47   2.0000      -0.564438       -15.3591
  48   2.0000      -0.559158       -15.2155
  49   2.0000      -0.556880       -15.1535
  50   2.0000      -0.549858       -14.9624
  51   2.0000      -0.543461       -14.7883
  52   2.0000      -0.535435       -14.5699
  53   2.0000      -0.533210       -14.5094
  54   2.0000      -0.510067       -13.8796
  55   2.0000      -0.509723       -13.8703
  56   2.0000      -0.488384       -13.2896
  57   2.0000      -0.482203       -13.1214
  58   2.0000      -0.479006       -13.0344
  59   2.0000      -0.477475       -12.9928
  60   2.0000      -0.469940       -12.7877
  61   2.0000      -0.457777       -12.4567
  62   2.0000      -0.449696       -12.2369
  63   2.0000      -0.443075       -12.0567
  64   2.0000      -0.436052       -11.8656
  65   2.0000      -0.430646       -11.7185
  66   2.0000      -0.429194       -11.6790
  67   2.0000      -0.417353       -11.3568
  68   2.0000      -0.401169       -10.9164
  69   2.0000      -0.389021       -10.5858
  70   2.0000      -0.369093       -10.0435
  71   2.0000      -0.359887        -9.7930
  72   2.0000      -0.342613        -9.3230
  73   2.0000      -0.301542        -8.2054
  74   0.0000      -0.009172        -0.2496
  75   0.0000       0.033508         0.9118
  76   0.0000       0.044818         1.2196
  77   0.0000       0.052160         1.4194
  78   0.0000       0.054535         1.4840

MULLIKEN ATOMIC CHARGES
-----------------------
   0 C :   -0.585628
   1 C :    0.609991
   2 C :   -0.576490
   3 C :   -0.150576
   4 C :   -0.953860
   5 C :    1.070586
   6 C :   -1.094205
   7 C :   -0.451672
   8 C :   -0.392586
   9 C :   -0.867796
  10 C :    0.800099
  11 S :    2.144464
  12 O :   -1.023296
  13 O :   -1.022435
  14 C :    1.033703
  15 C :   -0.979549
  16 C :   -0.201090
  17 C :   -0.620493
  18 C :   -0.966084
  19 C :    1.166623
  20 H :    0.227567
  21 H :    0.208631
  22 H :    0.191681
  23 H :    0.192562
  24 H :    0.228029
  25 H :    0.206134
  26 H :    0.186278
  27 H :    0.253323
  28 H :    0.223548
  29 H :    0.227888
  30 H :    0.243563
  31 H :    0.228587
  32 H :    0.230112
  33 H :    0.212390
Sum of atomic charges:   -0.0000000

LOEWDIN ATOMIC CHARGES
----------------------
   0 C :    0.080921
   1 C :   -0.731685
   2 C :    0.082038
   3 C :   -0.220945
   4 C :   -0.220972
   5 C :   -0.248264
   6 C :   -0.006492
   7 C :   -0.119795
   8 C :   -0.116767
   9 C :   -0.017347
  10 C :   -0.298154
  11 S :    0.214985
  12 O :    0.052871
  13 O :    0.053321
  14 C :   -0.351632
  15 C :   -0.037911
  16 C :   -0.097550
  17 C :   -0.094057
  18 C :   -0.005745
  19 C :   -0.267484
  20 H :    0.148812
  21 H :    0.146559
  22 H :    0.145906
  23 H :    0.145755
  24 H :    0.149073
  25 H :    0.146226
  26 H :    0.188292
  27 H :    0.171909
  28 H :    0.171344
  29 H :    0.195651
  30 H :    0.190962
  31 H :    0.175025
  32 H :    0.176377
  33 H :    0.198774

  Mayer bond orders larger than 0.100000
B(  0-C ,  1-C ) :   0.6295 B(  0-C ,  3-C ) :   0.2842 B(  0-C , 10-C ) :   0.2490
B(  0-C , 19-C ) :  -0.1272 B(  0-C , 20-H ) :   0.9334 B(  0-C , 21-H ) :   0.9413
B(  0-C , 22-H ) :   0.9565 B(  1-C ,  2-C ) :   0.6397 B(  1-C ,  3-C ) :   0.9821
B(  1-C ,  4-C ) :   0.3246 B(  1-C ,  5-C ) :   0.5441 B(  1-C ,  6-C ) :  -0.1706
B(  1-C ,  7-C ) :   0.2496 B(  1-C , 10-C ) :   0.6839 B(  1-C , 14-C ) :  -0.1014
B(  1-C , 19-C ) :   0.1976 B(  2-C ,  3-C ) :   0.2989 B(  2-C , 10-C ) :   0.2363
B(  2-C , 19-C ) :  -0.1463 B(  2-C , 23-H ) :   0.9522 B(  2-C , 24-H ) :   0.9347
B(  2-C , 25-H ) :   0.9386 B(  3-C ,  4-C ) :   2.0098 B(  3-C ,  5-C ) :  -0.5893
B(  3-C ,  6-C ) :   0.2014 B(  3-C ,  7-C ) :  -0.2347 B(  3-C ,  9-C ) :  -0.4265
B(  3-C , 10-C ) :   0.5179 B(  3-C , 11-S ) :   0.3485 B(  3-C , 14-C ) :  -0.6290
B(  3-C , 15-C ) :   0.5594 B(  3-C , 16-C ) :   0.1148 B(  3-C , 17-C ) :   0.1707
B(  3-C , 18-C ) :  -0.1131 B(  3-C , 19-C ) :   0.4297 B(  4-C ,  5-C ) :   0.4289
B(  4-C ,  6-C ) :   0.3408 B(  4-C ,  7-C ) :   0.1798 B(  4-C ,  9-C ) :   0.4823
B(  4-C , 10-C ) :  -0.6292 B(  4-C , 11-S ) :   0.7248 B(  4-C , 12-O ) :   0.2552
B(  4-C , 13-O ) :   0.2108 B(  4-C , 14-C ) :   0.2241 B(  4-C , 15-C ) :  -0.1605
B(  4-C , 18-C ) :   0.1672 B(  4-C , 19-C ) :   0.1464 B(  5-C ,  6-C ) :   0.1570
B(  5-C ,  7-C ) :  -0.2439 B(  5-C , 10-C ) :   0.6020 B(  5-C , 14-C ) :   0.1303
B(  5-C , 15-C ) :  -0.1660 B(  5-C , 18-C ) :  -0.1172 B(  5-C , 26-H ) :  -0.1300
B(  6-C ,  7-C ) :   1.2850 B(  6-C ,  8-C ) :   0.1348 B(  6-C , 26-H ) :   1.0540
B(  7-C ,  8-C ) :   1.2227 B(  7-C ,  9-C ) :   0.1396 B(  7-C , 10-C ) :  -0.1638
B(  7-C , 27-H ) :   0.9223 B(  8-C ,  9-C ) :   1.0252 B(  8-C , 10-C ) :  -0.3320
B(  8-C , 28-H ) :   0.9960 B(  9-C , 10-C ) :   0.3366 B(  9-C , 29-H ) :   0.9501
B( 10-C , 14-C ) :  -0.1178 B( 10-C , 19-C ) :  -0.1599 B( 11-S , 12-O ) :   1.0204
B( 11-S , 13-O ) :   1.0036 B( 11-S , 14-C ) :   0.4828 B( 12-O , 13-O ) :   0.1110
B( 14-C , 16-C ) :  -0.1670 B( 14-C , 18-C ) :  -0.6232 B( 14-C , 19-C ) :   1.0730
B( 15-C , 16-C ) :   0.9440 B( 15-C , 17-C ) :   0.2680 B( 15-C , 19-C ) :   0.5506
B( 15-C , 30-H ) :   0.8873 B( 16-C , 17-C ) :   1.1816 B( 16-C , 18-C ) :   0.1110
B( 16-C , 31-H ) :   0.9653 B( 17-C , 18-C ) :   1.4123 B( 17-C , 19-C ) :  -0.3482
B( 17-C , 32-H ) :   0.9572 B( 18-C , 19-C ) :   0.5039 B( 18-C , 33-H ) :   1.0410
B( 19-C , 33-H ) :  -0.1073

-----------------------------------------------------------------------------
         ABSORPTION SPECTRUM VIA TRANSITION ELECTRIC DIPOLE MOMENTS
-----------------------------------------------------------------------------
State   Energy    Wavelength  fosc         T2        TX        TY        TZ
        (cm-1)      (nm)                 (au**2)    (au)      (au)      (au)
-----------------------------------------------------------------------------
   1   32001.9    312.5   0.452530240   4.65530   2.06978  -0.24720   0.55695
   2   39598.0    252.5   0.048455439   0.40285  -0.62359   0.02423  -0.11574
   3   40790.3    245.2   0.004381278   0.03536   0.10366   0.12452  -0.09545
   4   44955.6    222.4   0.460239959   3.37036  -1.57645   0.57169  -0.74721
   5   45310.4    220.7   0.001001535   0.00728   0.02450   0.04567   0.06775
   6   47710.9    209.6   0.517234181   3.56899   1.15602  -1.00774   1.10321
   7   49392.1    202.5   0.032640325   0.21756  -0.38558  -0.22380   0.13711
   8   50218.8    199.1   0.006321280   0.04144  -0.08449   0.05468  -0.17695
   9   50664.2    197.4   0.307065713   1.99529  -0.91388   0.73180  -0.79031
  10   52507.4    190.4   0.072177636   0.45254   0.62455  -0.12527   0.21631

Dispersion correction           -0.017970114
FINAL SINGLE POINT ENERGY     -1204.787025424409

DIPOLE MOMENT
-------------
                                X             Y             Z
Electronic contribution:      7.58665      10.92107      -8.69232
Nuclear contribution   :     -7.71754     -13.39782      10.93532
                        -----------------------------------------
Total Dipole Moment    :     -0.13090      -2.47675       2.24300
                        -----------------------------------------
Magnitude (a.u.)       :      3.34402
Magnitude (Debye)      :      8.49982

Rotational constants in cm-1:     0.019561     0.009156     0.006754
Rotational constants in MHz :   586.433474   274.488123   202.491603

                             ****ORCA TERMINATED NORMALLY****
TOTAL RUN TIME: 0 days 6 hours 14 minutes 7 seconds 660 msec
