                         Program Version 5.0.2 -  RELEASE  -
|  1> ! x3lyp aug-cc-PVTZ RIJCOSX Opt
|  2> %maxcore 4000
|  3> %basis
|  4>  AuxJ "aug-cc-PVTZ/JK"
|  5>  AuxC "aug-cc-PVTZ/C"
|  6>  newGTO H "cc-PVTZ" end
|  7>  newAuxJGTO H "cc-PVTZ/JK" end
|  8>  newAuxCGTO H "cc-PVTZ/C" end
|  9> end
| 10> %cpcm
| 11>  SMD true
| 12>  SMDsolvent "dichloromethane"
| 13> end
| 14> %pal nprocs 4 end
| 15> * xyz 0 1
| 16> C         -1.00590       -0.61600        2.10610
| 17> C         -0.82430       -0.80940        0.59740
| 18> C         -0.70850       -2.29480        0.24150
| 19> C          0.35590       -0.01940        0.07520
| 20> C         -0.04950        0.90770       -0.82140
| 21> C         -1.47290        0.86060       -1.00630
| 22> C         -2.32270        1.60350       -1.80920
| 23> C         -3.67690        1.31370       -1.76610
| 24> C         -4.16430        0.30930       -0.94260
| 25> C         -3.31160       -0.43630       -0.13640
| 26> C         -1.96300       -0.16070       -0.16770
| 27> S          1.35280        1.83120       -1.42690
| 28> O          1.59060        1.57500       -2.82150
| 29> O          1.30250        3.20400       -1.00210
| 30> C          2.48960        0.88190       -0.39640
| 31> C          3.85070        1.01580       -0.30260
| 32> C          4.54150        0.17220        0.56280
| 33> C          3.85550       -0.77500        1.30520
| 34> C          2.47840       -0.90500        1.20540
| 35> C          1.77630       -0.06850        0.34410
| 36> H         -1.08770        0.44300        2.33950
| 37> H         -0.16070       -1.02730        2.65140
| 38> H         -1.91260       -1.11600        2.43770
| 39> H         -1.61150       -2.81990        0.54310
| 40> H         -0.57990       -2.41280       -0.83180
| 41> H          0.14240       -2.74600        0.74480
| 42> H         -1.93030        2.38170       -2.44500
| 43> H         -4.36340        1.87620       -2.38110
| 44> H         -5.22420        0.10230       -0.92680
| 45> H         -3.70880       -1.21460        0.49870
| 46> H          4.36320        1.76090       -0.89060
| 47> H          5.61340        0.25730        0.65470
| 48> H          4.40100       -1.42460        1.97380
| 49> H          1.96480       -1.64980        1.79320
| 50> *
| 51>
| 52>
| 53> $new_job
| 54> ! x3lyp aug-cc-PVTZ RIJCOSX SP
| 55> %maxcore 4000
| 56> %basis
| 57>  AuxJ "aug-cc-PVTZ/JK"
| 58>  AuxC "aug-cc-PVTZ/C"
| 59>  newGTO H "cc-PVTZ" end
| 60>  newAuxJGTO H "cc-PVTZ/JK" end
| 61>  newAuxCGTO H "cc-PVTZ/C" end
| 62> end
| 63> %cpcm
| 64>  SMD true
| 65>  SMDsolvent "dichloromethane"
| 66> end
| 67> %pal nprocs 4 end
| 68> %tddft
| 69>  nroots 10
| 70>  maxdim 7
| 71> end
| 72> * xyzfile 0 1
| 73>
| 74>                          ****END OF INPUT****
 Total Charge           Charge          ....    0
 Multiplicity           Mult            ....    1
 Number of Electrons    NEL             ....  148
FINAL SINGLE POINT ENERGY     -1204.386642447138
FINAL SINGLE POINT ENERGY     -1204.388907824422
FINAL SINGLE POINT ENERGY     -1204.389522562967
FINAL SINGLE POINT ENERGY     -1204.389561662146
FINAL SINGLE POINT ENERGY     -1204.389568081177
                    ***********************HURRAY********************
FINAL SINGLE POINT ENERGY     -1204.389567431415

CARTESIAN COORDINATES (ANGSTROEM)
---------------------------------
  C     -1.023826   -0.657463    2.120042
  C     -0.841302   -0.826060    0.600023
  C     -0.727801   -2.320675    0.241153
  C      0.355561   -0.046102    0.089617
  C     -0.035910    0.874516   -0.811761
  C     -1.469910    0.861998   -1.020272
  C     -2.313337    1.617374   -1.826796
  C     -3.678611    1.349538   -1.781049
  C     -4.181314    0.351748   -0.948859
  C     -3.329441   -0.405881   -0.141849
  C     -1.971134   -0.151316   -0.177278
  S      1.347570    1.794331   -1.428710
  O      1.591675    1.518714   -2.845472
  O      1.280907    3.200322   -1.028072
  C      2.490820    0.871100   -0.387493
  C      3.852952    1.044237   -0.315466
  C      4.563967    0.214498    0.556330
  C      3.898803   -0.742868    1.312277
  C      2.515442   -0.902138    1.224821
  C      1.792228   -0.085444    0.363186
  H     -1.098063    0.394315    2.397090
  H     -0.185009   -1.098374    2.658647
  H     -1.935987   -1.161957    2.439867
  H     -1.635067   -2.843672    0.544820
  H     -0.592892   -2.461520   -0.831496
  H      0.117012   -2.775789    0.758202
  H     -1.924071    2.394291   -2.470919
  H     -4.356865    1.924258   -2.397501
  H     -5.246156    0.161553   -0.926602
  H     -3.735513   -1.177335    0.499834
  H      4.361001    1.792320   -0.908765
  H      5.636550    0.321632    0.639768
  H      4.462343   -1.377913    1.982388
  H      2.015277   -1.652039    1.820394

 Multiplicity           Mult            ....    1
 Number of Electrons    NEL             ....  148
 Basis Dimension        Dim             .... 1120

ORBITAL ENERGIES
----------------

  NO   OCC          E(Eh)            E(eV)
   0   2.0000     -89.162447     -2426.2335
   1   2.0000     -19.160496      -521.3836
   2   2.0000     -19.160395      -521.3808
   3   2.0000     -10.237342      -278.5722
   4   2.0000     -10.234728      -278.5011
   5   2.0000     -10.232020      -278.4274
   6   2.0000     -10.230947      -278.3982
   7   2.0000     -10.230340      -278.3817
   8   2.0000     -10.221758      -278.1482
   9   2.0000     -10.219448      -278.0853
  10   2.0000     -10.214528      -277.9514
  11   2.0000     -10.212860      -277.9061
  12   2.0000     -10.211982      -277.8821
  13   2.0000     -10.208975      -277.8003
  14   2.0000     -10.203205      -277.6433
  15   2.0000     -10.200811      -277.5782
  16   2.0000     -10.199974      -277.5554
  17   2.0000     -10.199178      -277.5337
  18   2.0000     -10.187055      -277.2039
  19   2.0000     -10.186824      -277.1976
  20   2.0000      -8.141278      -221.5354
  21   2.0000      -6.098528      -165.9494
  22   2.0000      -6.098168      -165.9396
  23   2.0000      -6.098143      -165.9389
  24   2.0000      -1.118384       -30.4328
  25   2.0000      -1.012023       -27.5385
  26   2.0000      -0.922369       -25.0989
  27   2.0000      -0.888828       -24.1862
  28   2.0000      -0.847670       -23.0663
  29   2.0000      -0.816799       -22.2262
  30   2.0000      -0.783774       -21.3276
  31   2.0000      -0.779313       -21.2062
  32   2.0000      -0.748918       -20.3791
  33   2.0000      -0.729325       -19.8459
  34   2.0000      -0.703357       -19.1393
  35   2.0000      -0.694467       -18.8974
  36   2.0000      -0.649428       -17.6718
  37   2.0000      -0.640281       -17.4229
  38   2.0000      -0.609972       -16.5982
  39   2.0000      -0.593865       -16.1599
  40   2.0000      -0.578006       -15.7284
  41   2.0000      -0.565528       -15.3888
  42   2.0000      -0.524035       -14.2597
  43   2.0000      -0.514159       -13.9910
  44   2.0000      -0.498868       -13.5749
  45   2.0000      -0.485439       -13.2095
  46   2.0000      -0.473425       -12.8826
  47   2.0000      -0.466192       -12.6857
  48   2.0000      -0.460714       -12.5367
  49   2.0000      -0.458322       -12.4716
  50   2.0000      -0.452715       -12.3190
  51   2.0000      -0.442036       -12.0284
  52   2.0000      -0.437966       -11.9177
  53   2.0000      -0.437258       -11.8984
  54   2.0000      -0.416933       -11.3453
  55   2.0000      -0.407190       -11.0802
  56   2.0000      -0.391424       -10.6512
  57   2.0000      -0.389293       -10.5932
  58   2.0000      -0.384871       -10.4729
  59   2.0000      -0.380699       -10.3594
  60   2.0000      -0.376646       -10.2490
  61   2.0000      -0.368479       -10.0268
  62   2.0000      -0.353634        -9.6229
  63   2.0000      -0.348361        -9.4794
  64   2.0000      -0.345701        -9.4070
  65   2.0000      -0.339642        -9.2421
  66   2.0000      -0.334994        -9.1156
  67   2.0000      -0.329371        -8.9626
  68   2.0000      -0.310208        -8.4412
  69   2.0000      -0.301048        -8.1919
  70   2.0000      -0.283333        -7.7099
  71   2.0000      -0.275385        -7.4936
  72   2.0000      -0.259048        -7.0491
  73   2.0000      -0.222941        -6.0665
  74   0.0000      -0.076639        -2.0855
  75   0.0000      -0.036246        -0.9863
  76   0.0000      -0.015007        -0.4084
  77   0.0000      -0.005450        -0.1483
  78   0.0000      -0.003771        -0.1026

MULLIKEN ATOMIC CHARGES
-----------------------
   0 C :   -0.467981
   1 C :    0.460595
   2 C :   -0.452644
   3 C :    0.017838
   4 C :   -0.616878
   5 C :    1.100325
   6 C :   -1.053244
   7 C :   -0.422949
   8 C :   -0.393318
   9 C :   -0.751551
  10 C :    0.930438
  11 S :    1.894901
  12 O :   -1.062315
  13 O :   -1.061669
  14 C :    1.013430
  15 C :   -0.923597
  16 C :   -0.207611
  17 C :   -0.611695
  18 C :   -0.769886
  19 C :    1.170974
  20 H :    0.165291
  21 H :    0.131837
  22 H :    0.123120
  23 H :    0.124931
  24 H :    0.165645
  25 H :    0.132388
  26 H :    0.117968
  27 H :    0.221488
  28 H :    0.192968
  29 H :    0.118099
  30 H :    0.176464
  31 H :    0.208423
  32 H :    0.206411
  33 H :    0.121802
Sum of atomic charges:   -0.0000000

LOEWDIN ATOMIC CHARGES
----------------------
   0 C :    0.077326
   1 C :   -0.713783
   2 C :    0.078506
   3 C :   -0.215743
   4 C :   -0.217259
   5 C :   -0.246112
   6 C :   -0.007057
   7 C :   -0.120370
   8 C :   -0.116532
   9 C :   -0.017604
  10 C :   -0.286983
  11 S :    0.233708
  12 O :    0.041201
  13 O :    0.041059
  14 C :   -0.342042
  15 C :   -0.041065
  16 C :   -0.098563
  17 C :   -0.095935
  18 C :   -0.005153
  19 C :   -0.264884
  20 H :    0.145459
  21 H :    0.143655
  22 H :    0.144022
  23 H :    0.143696
  24 H :    0.145980
  25 H :    0.143765
  26 H :    0.185850
  27 H :    0.170458
  28 H :    0.169574
  29 H :    0.192614
  30 H :    0.188581
  31 H :    0.173274
  32 H :    0.174862
  33 H :    0.195494

  Mayer bond orders larger than 0.100000
B(  0-C ,  1-C ) :   0.6533 B(  0-C ,  3-C ) :   0.2573 B(  0-C , 10-C ) :   0.1448
B(  0-C , 20-H ) :   0.9490 B(  0-C , 21-H ) :   0.9871 B(  0-C , 22-H ) :   0.9922
B(  1-C ,  2-C ) :   0.6863 B(  1-C ,  3-C ) :   0.9572 B(  1-C ,  4-C ) :   0.3381
B(  1-C ,  5-C ) :   0.5522 B(  1-C ,  7-C ) :   0.1672 B(  1-C ,  9-C ) :   0.1535
B(  1-C , 10-C ) :   0.7053 B(  2-C ,  3-C ) :   0.2427 B(  2-C , 10-C ) :   0.1298
B(  2-C , 19-C ) :  -0.1003 B(  2-C , 23-H ) :   0.9874 B(  2-C , 24-H ) :   0.9483
B(  2-C , 25-H ) :   0.9836 B(  3-C ,  4-C ) :   1.0503 B(  3-C ,  5-C ) :  -0.2782
B(  3-C ,  6-C ) :   0.1283 B(  3-C ,  7-C ) :  -0.1726 B(  3-C ,  9-C ) :  -0.2812
B(  3-C , 10-C ) :   0.1929 B(  3-C , 11-S ) :   0.5470 B(  3-C , 14-C ) :  -0.2240
B(  3-C , 15-C ) :   0.4273 B(  3-C , 16-C ) :   0.1174 B(  3-C , 17-C ) :   0.1676
B(  4-C ,  6-C ) :   0.2902 B(  4-C ,  7-C ) :   0.1776 B(  4-C ,  9-C ) :   0.2980
B(  4-C , 10-C ) :  -0.3056 B(  4-C , 11-S ) :   0.6006 B(  4-C , 12-O ) :   0.2062
B(  4-C , 13-O ) :   0.1984 B(  4-C , 15-C ) :  -0.1410 B(  4-C , 18-C ) :   0.1727
B(  4-C , 19-C ) :   0.2903 B(  5-C ,  6-C ) :   0.3332 B(  5-C ,  7-C ) :  -0.1850
B(  5-C ,  9-C ) :  -0.2617 B(  5-C , 10-C ) :   0.5401 B(  5-C , 11-S ) :  -0.1579
B(  5-C , 14-C ) :   0.1408 B(  5-C , 19-C ) :   0.1316 B(  5-C , 26-H ) :  -0.1176
B(  6-C ,  7-C ) :   1.3344 B(  6-C ,  8-C ) :   0.1229 B(  6-C , 10-C ) :  -0.1505
B(  6-C , 26-H ) :   1.1035 B(  7-C ,  8-C ) :   1.2499 B(  7-C ,  9-C ) :   0.1278
B(  7-C , 10-C ) :  -0.1699 B(  7-C , 27-H ) :   0.9048 B(  8-C ,  9-C ) :   1.0561
B(  8-C , 10-C ) :  -0.1977 B(  8-C , 28-H ) :   0.9663 B(  9-C , 10-C ) :   0.6651
B(  9-C , 29-H ) :   1.0623 B( 10-C , 14-C ) :  -0.1418 B( 11-S , 12-O ) :   0.9853
B( 11-S , 13-O ) :   0.9785 B( 11-S , 14-C ) :   0.5729 B( 12-O , 13-O ) :   0.1622
B( 14-C , 15-C ) :   0.4009 B( 14-C , 16-C ) :  -0.1300 B( 14-C , 17-C ) :  -0.1069
B( 14-C , 18-C ) :  -0.6255 B( 14-C , 19-C ) :   0.8820 B( 15-C , 16-C ) :   0.9822
B( 15-C , 17-C ) :   0.2362 B( 15-C , 19-C ) :   0.3430 B( 15-C , 30-H ) :   0.9633
B( 16-C , 17-C ) :   1.2393 B( 16-C , 31-H ) :   0.9411 B( 17-C , 18-C ) :   1.3330
B( 17-C , 19-C ) :  -0.2573 B( 17-C , 32-H ) :   0.9383 B( 18-C , 19-C ) :   0.7715
B( 18-C , 33-H ) :   1.0809

-----------------------------------------------------------------------------
         ABSORPTION SPECTRUM VIA TRANSITION ELECTRIC DIPOLE MOMENTS
-----------------------------------------------------------------------------
State   Energy    Wavelength  fosc         T2        TX        TY        TZ
        (cm-1)      (nm)                 (au**2)    (au)      (au)      (au)
-----------------------------------------------------------------------------
   1   27805.2    359.6   0.431549617   5.10953   2.18456  -0.21282   0.54029
   2   34207.6    292.3   0.019480204   0.18748  -0.32815  -0.23427   0.15783
   3   34839.5    287.0   0.134978832   1.27547   1.05946  -0.19441   0.33944
   4   39326.1    254.3   0.540774053   4.52700  -1.75457   0.73938  -0.94962
   5   39795.2    251.3   0.027428512   0.22691   0.44741  -0.07358   0.14599
   6   40067.8    249.6   0.006020130   0.04946   0.07071  -0.18527   0.10070
   7   40080.6    249.5   0.017137282   0.14076  -0.06155   0.24838  -0.27437
   8   41978.0    238.2   0.000941761   0.00739  -0.02439   0.05667   0.05983
   9   43966.1    227.4   0.043041433   0.32229   0.42280   0.30588  -0.22353
  10   45012.9    222.2   0.077242922   0.56493   0.27062  -0.50005   0.49157

FINAL SINGLE POINT ENERGY     -1204.262877935189

DIPOLE MOMENT
-------------
                                X             Y             Z
Electronic contribution:      7.57052      10.98604      -8.75310
Nuclear contribution   :     -7.75664     -13.49382      11.03364
                        -----------------------------------------
Total Dipole Moment    :     -0.18612      -2.50778       2.28054
                        -----------------------------------------
Magnitude (a.u.)       :      3.39476
Magnitude (Debye)      :      8.62881

Rotational constants in cm-1:     0.019335     0.009110     0.006706
Rotational constants in MHz :   579.637932   273.099168   201.033838

                             ****ORCA TERMINATED NORMALLY****
TOTAL RUN TIME: 0 days 4 hours 4 minutes 6 seconds 987 msec
