                         Program Version 5.0.2 -  RELEASE  -
|  1> ! b3lyp aug-cc-PVTZ RIJCOSX Opt
|  2> %maxcore 4000
|  3> %basis
|  4>  AuxJ "aug-cc-PVTZ/JK"
|  5>  AuxC "aug-cc-PVTZ/C"
|  6>  newGTO H "cc-PVTZ" end
|  7>  newAuxJGTO H "cc-PVTZ/JK" end
|  8>  newAuxCGTO H "cc-PVTZ/C" end
|  9> end
| 10> %cpcm
| 11>  SMD true
| 12>  SMDsolvent "ethanol"
| 13> end
| 14> %pal nprocs 4 end
| 15> * xyz 0 1
| 16> N         -2.13160       -3.53150       -0.43250
| 17> C         -1.57570       -2.55260       -0.63200
| 18> C         -0.89460       -1.30680       -0.85160
| 19> C          0.62070       -1.46820       -1.05290
| 20> C          1.21490       -0.12200       -0.62600
| 21> C          2.51050       -0.27790        0.19930
| 22> N          2.91190        0.89490        0.72050
| 23> O          3.09230       -1.32760        0.33320
| 24> N          0.18610        0.51360        0.17560
| 25> N          0.17690        1.82820        0.27800
| 26> C         -0.90910        2.43540        0.60720
| 27> C         -2.17820        1.75380        0.67270
| 28> C         -2.22420        0.42980        0.50170
| 29> C         -0.96120       -0.36810        0.38090
| 30> H         -1.34710       -0.80480       -1.71590
| 31> H          1.01430       -2.25180       -0.40120
| 32> H          0.87550       -1.71890       -2.08030
| 33> H          1.45630        0.51580       -1.48700
| 34> H          3.70900        0.91340        1.33490
| 35> H          2.30520        1.70030        0.66600
| 36> H         -0.83820        3.50140        0.74460
| 37> H         -3.07550        2.34250        0.77660
| 38> H         -3.14950       -0.12280        0.43620
| 39> H         -0.78870       -0.97630        1.28840
| 40> *
| 41>
| 42>
| 43> $new_job
| 44> ! b3lyp aug-cc-PVTZ RIJCOSX SP
| 45> %maxcore 4000
| 46> %basis
| 47>  AuxJ "aug-cc-PVTZ/JK"
| 48>  AuxC "aug-cc-PVTZ/C"
| 49>  newGTO H "cc-PVTZ" end
| 50>  newAuxJGTO H "cc-PVTZ/JK" end
| 51>  newAuxCGTO H "cc-PVTZ/C" end
| 52> end
| 53> %cpcm
| 54>  SMD true
| 55>  SMDsolvent "ethanol"
| 56> end
| 57> %pal nprocs 4 end
| 58> %tddft
| 59>  nroots 10
| 60>  maxdim 7
| 61> end
| 62> * xyzfile 0 1
| 63>
| 64>                          ****END OF INPUT****
 Total Charge           Charge          ....    0
 Multiplicity           Mult            ....    1
 Number of Electrons    NEL             ....  100
FINAL SINGLE POINT ENERGY      -643.038745607200
FINAL SINGLE POINT ENERGY      -643.041619278791
FINAL SINGLE POINT ENERGY      -643.042116426744
FINAL SINGLE POINT ENERGY      -643.042419952414
FINAL SINGLE POINT ENERGY      -643.042667727430
FINAL SINGLE POINT ENERGY      -643.043066493718
FINAL SINGLE POINT ENERGY      -643.043452720765
FINAL SINGLE POINT ENERGY      -643.043839857431
FINAL SINGLE POINT ENERGY      -643.044187078167
FINAL SINGLE POINT ENERGY      -643.044446474373
FINAL SINGLE POINT ENERGY      -643.046526791226
FINAL SINGLE POINT ENERGY      -643.046564995345
FINAL SINGLE POINT ENERGY      -643.046609847552
FINAL SINGLE POINT ENERGY      -643.046625235717
FINAL SINGLE POINT ENERGY      -643.046636050238
FINAL SINGLE POINT ENERGY      -643.046661067505
FINAL SINGLE POINT ENERGY      -643.046668912680
FINAL SINGLE POINT ENERGY      -643.046682016825
                    ***********************HURRAY********************
FINAL SINGLE POINT ENERGY      -643.046684118670

CARTESIAN COORDINATES (ANGSTROEM)
---------------------------------
  N     -2.044400   -3.411683   -0.315037
  C     -1.513763   -2.413221   -0.534415
  C     -0.856350   -1.144761   -0.778622
  C      0.626892   -1.278037   -1.193706
  C      1.302896    0.021964   -0.658719
  C      2.575904   -0.287521    0.130053
  N      2.687566    0.272996    1.337649
  O      3.448797   -1.001318   -0.374174
  N      0.281354    0.742345    0.111319
  N     -0.071045    1.952765   -0.444947
  C     -1.233729    2.430589   -0.171556
  C     -2.227895    1.724850    0.616683
  C     -2.012518    0.448083    0.939475
  C     -0.758729   -0.231785    0.494398
  H     -1.425212   -0.614281   -1.544683
  H      1.071180   -2.158481   -0.734264
  H      0.728987   -1.367949   -2.271424
  H      1.617010    0.661182   -1.482358
  H      3.521403    0.126322    1.886344
  H      1.949746    0.857788    1.697320
  H     -1.446815    3.414617   -0.570078
  H     -3.133216    2.242196    0.904517
  H     -2.734379   -0.137536    1.493378
  H     -0.353685   -0.849325    1.299248

 Multiplicity           Mult            ....    1
 Number of Electrons    NEL             ....  100
 Basis Dimension        Dim             ....  784

ORBITAL ENERGIES
----------------

  NO   OCC          E(Eh)            E(eV)
   0   2.0000     -19.104273      -519.8537
   1   2.0000     -14.368272      -390.9806
   2   2.0000     -14.353639      -390.5824
   3   2.0000     -14.339791      -390.2055
   4   2.0000     -14.320830      -389.6896
   5   2.0000     -10.283888      -279.8388
   6   2.0000     -10.230347      -278.3819
   7   2.0000     -10.222568      -278.1702
   8   2.0000     -10.222184      -278.1598
   9   2.0000     -10.219778      -278.0943
  10   2.0000     -10.204792      -277.6865
  11   2.0000     -10.189822      -277.2792
  12   2.0000     -10.188084      -277.2319
  13   2.0000     -10.182763      -277.0871
  14   2.0000      -1.045709       -28.4552
  15   2.0000      -1.021965       -27.8091
  16   2.0000      -0.920512       -25.0484
  17   2.0000      -0.914503       -24.8849
  18   2.0000      -0.879554       -23.9339
  19   2.0000      -0.823828       -22.4175
  20   2.0000      -0.782055       -21.2808
  21   2.0000      -0.750055       -20.4100
  22   2.0000      -0.660874       -17.9833
  23   2.0000      -0.647563       -17.6211
  24   2.0000      -0.640041       -17.4164
  25   2.0000      -0.585504       -15.9324
  26   2.0000      -0.553147       -15.0519
  27   2.0000      -0.534040       -14.5320
  28   2.0000      -0.527601       -14.3568
  29   2.0000      -0.507073       -13.7982
  30   2.0000      -0.499956       -13.6045
  31   2.0000      -0.472105       -12.8466
  32   2.0000      -0.461413       -12.5557
  33   2.0000      -0.438081       -11.9208
  34   2.0000      -0.432258       -11.7623
  35   2.0000      -0.421947       -11.4818
  36   2.0000      -0.414333       -11.2746
  37   2.0000      -0.399010       -10.8576
  38   2.0000      -0.391396       -10.6504
  39   2.0000      -0.383419       -10.4334
  40   2.0000      -0.374116       -10.1802
  41   2.0000      -0.370125       -10.0716
  42   2.0000      -0.356163        -9.6917
  43   2.0000      -0.336555        -9.1581
  44   2.0000      -0.332295        -9.0422
  45   2.0000      -0.305988        -8.3264
  46   2.0000      -0.284198        -7.7334
  47   2.0000      -0.283495        -7.7143
  48   2.0000      -0.271362        -7.3841
  49   2.0000      -0.216954        -5.9036
  50   0.0000      -0.054474        -1.4823
  51   0.0000      -0.005611        -0.1527
  52   0.0000       0.001475         0.0401
  53   0.0000       0.010307         0.2805
  54   0.0000       0.011664         0.3174

MULLIKEN ATOMIC CHARGES
-----------------------
   0 N :   -0.759453
   1 C :    0.290909
   2 C :    0.418644
   3 C :   -0.283653
   4 C :    0.320804
   5 C :    0.417419
   6 N :   -0.286449
   7 O :   -0.811048
   8 N :    0.350218
   9 N :   -0.751374
  10 C :   -0.284171
  11 C :   -0.182247
  12 C :   -0.410379
  13 C :    0.489762
  14 H :    0.044735
  15 H :    0.127855
  16 H :    0.145142
  17 H :    0.126121
  18 H :    0.150523
  19 H :    0.180888
  20 H :    0.252962
  21 H :    0.176382
  22 H :    0.176348
  23 H :    0.100062
Sum of atomic charges:   -0.0000000

LOEWDIN ATOMIC CHARGES
----------------------
   0 N :    0.214160
   1 C :   -0.326495
   2 C :   -0.343627
   3 C :   -0.052743
   4 C :   -0.420170
   5 C :   -0.987577
   6 N :    0.464558
   7 O :    0.326817
   8 N :   -0.051385
   9 N :    0.140091
  10 C :   -0.254524
  11 C :   -0.110326
  12 C :   -0.056436
  13 C :   -0.401759
  14 H :    0.254999
  15 H :    0.206536
  16 H :    0.180578
  17 H :    0.246294
  18 H :    0.093345
  19 H :    0.106058
  20 H :    0.165103
  21 H :    0.169010
  22 H :    0.180910
  23 H :    0.256583

  Mayer bond orders larger than 0.100000
B(  0-N ,  1-C ) :   2.0302 B(  1-C ,  2-C ) :   0.7965 B(  2-C ,  3-C ) :   0.8872
B(  2-C , 13-C ) :   0.9198 B(  2-C , 14-H ) :   1.0080 B(  3-C ,  4-C ) :   0.9538
B(  3-C , 15-H ) :   1.0086 B(  3-C , 16-H ) :   1.0042 B(  4-C ,  5-C ) :   0.6924
B(  4-C ,  8-N ) :   0.9373 B(  4-C , 17-H ) :   1.0078 B(  5-C ,  6-N ) :   1.0889
B(  5-C ,  7-O ) :   1.2856 B(  6-N , 18-H ) :   1.0056 B(  6-N , 19-H ) :   0.9763
B(  8-N , 10-C ) :   0.1283 B(  8-N , 13-C ) :   0.8764 B(  9-N , 10-C ) :   1.5630
B(  9-N , 12-C ) :   0.1101 B( 10-C , 11-C ) :   0.7852 B( 10-C , 20-H ) :   0.9181
B( 11-C , 12-C ) :   1.5955 B( 11-C , 21-H ) :   1.0021 B( 12-C , 13-C ) :   0.6720
B( 12-C , 22-H ) :   1.0346 B( 13-C , 23-H ) :   1.0427

-----------------------------------------------------------------------------
         ABSORPTION SPECTRUM VIA TRANSITION ELECTRIC DIPOLE MOMENTS
-----------------------------------------------------------------------------
State   Energy    Wavelength  fosc         T2        TX        TY        TZ
        (cm-1)      (nm)                 (au**2)    (au)      (au)      (au)
-----------------------------------------------------------------------------
   1   31817.1    314.3   0.098318068   1.01730  -0.96118  -0.03600   0.30353
   2   39764.0    251.5   0.005024319   0.04160  -0.01704  -0.00048   0.20324
   3   40170.8    248.9   0.004009290   0.03286   0.09184  -0.15622  -0.00429
   4   41513.1    240.9   0.003736544   0.02963  -0.00758  -0.17188  -0.00564
   5   43291.4    231.0   0.010282355   0.07819  -0.00290   0.24691  -0.13123
   6   44598.7    224.2   0.002268835   0.01675   0.00822   0.12911   0.00334
   7   44945.6    222.5   0.121014130   0.88639  -0.29773  -0.87739  -0.16713
   8   45287.7    220.8   0.007075551   0.05143  -0.12909  -0.08699  -0.16493
   9   45358.0    220.5   0.003242328   0.02353   0.09732  -0.11841   0.00636
  10   46234.9    216.3   0.005890716   0.04194   0.01920   0.10938   0.17208

FINAL SINGLE POINT ENERGY      -642.901714524277

DIPOLE MOMENT
-------------
                                X             Y             Z
Electronic contribution:     -0.08481      -1.09671       0.00579
Nuclear contribution   :     -1.01370       3.44933       1.10684
                        -----------------------------------------
Total Dipole Moment    :     -1.09851       2.35262       1.11263
                        -----------------------------------------
Magnitude (a.u.)       :      2.82480
Magnitude (Debye)      :      7.18006

Rotational constants in cm-1:     0.028907     0.022257     0.014540
Rotational constants in MHz :   866.595764   667.237952   435.894652

                             ****ORCA TERMINATED NORMALLY****
TOTAL RUN TIME: 0 days 4 hours 14 minutes 39 seconds 387 msec
