                         Program Version 5.0.2 -  RELEASE  -
|  1> ! m062x defgrid3 aug-cc-PVTZ RIJCOSX Opt
|  2> %maxcore 4000
|  3> %basis
|  4>  AuxJ "aug-cc-PVTZ/JK"
|  5>  AuxC "aug-cc-PVTZ/C"
|  6>  newGTO H "cc-PVTZ" end
|  7>  newAuxJGTO H "cc-PVTZ/JK" end
|  8>  newAuxCGTO H "cc-PVTZ/C" end
|  9> end
| 10> %cpcm
| 11>  SMD true
| 12>  SMDsolvent "ethanol"
| 13> end
| 14> %pal nprocs 4 end
| 15> * xyz 0 1
| 16> N         -2.13160       -3.53150       -0.43250
| 17> C         -1.57570       -2.55260       -0.63200
| 18> C         -0.89460       -1.30680       -0.85160
| 19> C          0.62070       -1.46820       -1.05290
| 20> C          1.21490       -0.12200       -0.62600
| 21> C          2.51050       -0.27790        0.19930
| 22> N          2.91190        0.89490        0.72050
| 23> O          3.09230       -1.32760        0.33320
| 24> N          0.18610        0.51360        0.17560
| 25> N          0.17690        1.82820        0.27800
| 26> C         -0.90910        2.43540        0.60720
| 27> C         -2.17820        1.75380        0.67270
| 28> C         -2.22420        0.42980        0.50170
| 29> C         -0.96120       -0.36810        0.38090
| 30> H         -1.34710       -0.80480       -1.71590
| 31> H          1.01430       -2.25180       -0.40120
| 32> H          0.87550       -1.71890       -2.08030
| 33> H          1.45630        0.51580       -1.48700
| 34> H          3.70900        0.91340        1.33490
| 35> H          2.30520        1.70030        0.66600
| 36> H         -0.83820        3.50140        0.74460
| 37> H         -3.07550        2.34250        0.77660
| 38> H         -3.14950       -0.12280        0.43620
| 39> H         -0.78870       -0.97630        1.28840
| 40> *
| 41>
| 42>
| 43> $new_job
| 44> ! m062x defgrid3 aug-cc-PVTZ RIJCOSX SP
| 45> %maxcore 4000
| 46> %basis
| 47>  AuxJ "aug-cc-PVTZ/JK"
| 48>  AuxC "aug-cc-PVTZ/C"
| 49>  newGTO H "cc-PVTZ" end
| 50>  newAuxJGTO H "cc-PVTZ/JK" end
| 51>  newAuxCGTO H "cc-PVTZ/C" end
| 52> end
| 53> %cpcm
| 54>  SMD true
| 55>  SMDsolvent "ethanol"
| 56> end
| 57> %pal nprocs 4 end
| 58> %tddft
| 59>  nroots 10
| 60>  maxdim 7
| 61> end
| 62> * xyzfile 0 1
| 63>
| 64>                          ****END OF INPUT****
 Total Charge           Charge          ....    0
 Multiplicity           Mult            ....    1
 Number of Electrons    NEL             ....  100
FINAL SINGLE POINT ENERGY      -643.162458683259
FINAL SINGLE POINT ENERGY      -643.164412892236
FINAL SINGLE POINT ENERGY      -643.164996976086
FINAL SINGLE POINT ENERGY      -643.165397706532
FINAL SINGLE POINT ENERGY      -643.165874854368
FINAL SINGLE POINT ENERGY      -643.166511303559
FINAL SINGLE POINT ENERGY      -643.167094410727
FINAL SINGLE POINT ENERGY      -643.167624604931
FINAL SINGLE POINT ENERGY      -643.168079972262
FINAL SINGLE POINT ENERGY      -643.168516022927
FINAL SINGLE POINT ENERGY      -643.170612376590
FINAL SINGLE POINT ENERGY      -643.170800462750
FINAL SINGLE POINT ENERGY      -643.170893664950
FINAL SINGLE POINT ENERGY      -643.170990217632
FINAL SINGLE POINT ENERGY      -643.171025840183
FINAL SINGLE POINT ENERGY      -643.171040184653
FINAL SINGLE POINT ENERGY      -643.171046360114
FINAL SINGLE POINT ENERGY      -643.171049576511
                    ***********************HURRAY********************
FINAL SINGLE POINT ENERGY      -643.171049785173

CARTESIAN COORDINATES (ANGSTROEM)
---------------------------------
  N     -1.999698   -3.346658   -0.302594
  C     -1.490508   -2.343199   -0.526562
  C     -0.841960   -1.068440   -0.775199
  C      0.615598   -1.197664   -1.255322
  C      1.321670    0.049880   -0.653145
  C      2.525932   -0.351806    0.187620
  N      2.633936    0.215091    1.388958
  O      3.349908   -1.140709   -0.270766
  N      0.311431    0.786244    0.106416
  N     -0.129273    1.909816   -0.565829
  C     -1.301388    2.344259   -0.296104
  C     -2.217790    1.679526    0.622346
  C     -1.930467    0.444856    1.022434
  C     -0.687622   -0.206916    0.512366
  H     -1.446403   -0.514862   -1.495829
  H      1.064640   -2.111238   -0.871578
  H      0.674735   -1.211715   -2.339128
  H      1.707679    0.704227   -1.432775
  H      3.430052    0.004064    1.971901
  H      1.928831    0.858435    1.712818
  H     -1.592775    3.263012   -0.789246
  H     -3.115801    2.194852    0.933162
  H     -2.580073   -0.125555    1.673103
  H     -0.230651   -0.835700    1.279352

 Multiplicity           Mult            ....    1
 Number of Electrons    NEL             ....  100
 Basis Dimension        Dim             ....  784

ORBITAL ENERGIES
----------------

  NO   OCC          E(Eh)            E(eV)
   0   2.0000     -19.603119      -533.4280
   1   2.0000     -14.800176      -402.7333
   2   2.0000     -14.790605      -402.4728
   3   2.0000     -14.770208      -401.9178
   4   2.0000     -14.757685      -401.5770
   5   2.0000     -10.655292      -289.9452
   6   2.0000     -10.597263      -288.3662
   7   2.0000     -10.589954      -288.1673
   8   2.0000     -10.588611      -288.1307
   9   2.0000     -10.586417      -288.0711
  10   2.0000     -10.576826      -287.8101
  11   2.0000     -10.559164      -287.3294
  12   2.0000     -10.553820      -287.1840
  13   2.0000     -10.551173      -287.1120
  14   2.0000      -1.173447       -31.9311
  15   2.0000      -1.143451       -31.1149
  16   2.0000      -1.032584       -28.0980
  17   2.0000      -1.025272       -27.8991
  18   2.0000      -0.988706       -26.9041
  19   2.0000      -0.929144       -25.2833
  20   2.0000      -0.883163       -24.0321
  21   2.0000      -0.847923       -23.0732
  22   2.0000      -0.750581       -20.4244
  23   2.0000      -0.735010       -20.0006
  24   2.0000      -0.727204       -19.7882
  25   2.0000      -0.667501       -18.1636
  26   2.0000      -0.635051       -17.2806
  27   2.0000      -0.615971       -16.7614
  28   2.0000      -0.604301       -16.4439
  29   2.0000      -0.582383       -15.8474
  30   2.0000      -0.578319       -15.7369
  31   2.0000      -0.549893       -14.9633
  32   2.0000      -0.535664       -14.5762
  33   2.0000      -0.513551       -13.9744
  34   2.0000      -0.502926       -13.6853
  35   2.0000      -0.498294       -13.5593
  36   2.0000      -0.486202       -13.2302
  37   2.0000      -0.467018       -12.7082
  38   2.0000      -0.462491       -12.5850
  39   2.0000      -0.459406       -12.5011
  40   2.0000      -0.441669       -12.0184
  41   2.0000      -0.436105       -11.8670
  42   2.0000      -0.421265       -11.4632
  43   2.0000      -0.401672       -10.9300
  44   2.0000      -0.395349       -10.7580
  45   2.0000      -0.372907       -10.1473
  46   2.0000      -0.350112        -9.5270
  47   2.0000      -0.347157        -9.4466
  48   2.0000      -0.342865        -9.3298
  49   2.0000      -0.278480        -7.5778
  50   0.0000      -0.020093        -0.5468
  51   0.0000       0.000964         0.0262
  52   0.0000       0.012277         0.3341
  53   0.0000       0.013504         0.3675
  54   0.0000       0.015050         0.4095

MULLIKEN ATOMIC CHARGES
-----------------------
   0 N :   -0.926717
   1 C :    0.559861
   2 C :    0.320569
   3 C :   -0.403344
   4 C :    0.090542
   5 C :    0.627508
   6 N :   -0.497158
   7 O :   -0.885237
   8 N :    0.549277
   9 N :   -0.739536
  10 C :   -0.267652
  11 C :   -0.248259
  12 C :   -0.288296
  13 C :    0.183034
  14 H :    0.125577
  15 H :    0.226353
  16 H :    0.156542
  17 H :    0.241148
  18 H :    0.225604
  19 H :    0.250990
  20 H :    0.240468
  21 H :    0.140014
  22 H :    0.155227
  23 H :    0.163484
Sum of atomic charges:   -0.0000000

LOEWDIN ATOMIC CHARGES
----------------------
   0 N :    0.220032
   1 C :   -0.325926
   2 C :   -0.353748
   3 C :   -0.050737
   4 C :   -0.433944
   5 C :   -1.007412
   6 N :    0.466674
   7 O :    0.333933
   8 N :   -0.061493
   9 N :    0.143497
  10 C :   -0.247730
  11 C :   -0.099947
  12 C :   -0.053865
  13 C :   -0.429554
  14 H :    0.261795
  15 H :    0.211408
  16 H :    0.182138
  17 H :    0.250588
  18 H :    0.096885
  19 H :    0.110205
  20 H :    0.168515
  21 H :    0.170039
  22 H :    0.182845
  23 H :    0.265801

  Mayer bond orders larger than 0.100000
B(  0-N ,  1-C ) :   1.4983 B(  0-N ,  2-C ) :   0.1799 B(  1-C ,  2-C ) :   0.7971
B(  1-C ,  3-C ) :   0.1703 B(  1-C , 13-C ) :   0.1820 B(  2-C ,  3-C ) :   0.7207
B(  2-C ,  4-C ) :   0.1042 B(  2-C , 13-C ) :   0.7946 B(  2-C , 14-H ) :   0.9873
B(  3-C ,  4-C ) :   0.8938 B(  3-C ,  5-C ) :   0.1308 B(  3-C , 15-H ) :   0.9800
B(  3-C , 16-H ) :   1.0240 B(  4-C ,  5-C ) :   0.6607 B(  4-C ,  8-N ) :   0.9440
B(  4-C , 13-C ) :  -0.1007 B(  4-C , 17-H ) :   1.0285 B(  5-C ,  6-N ) :   1.0163
B(  5-C ,  7-O ) :   1.2049 B(  6-N , 18-H ) :   0.9829 B(  6-N , 19-H ) :   0.9665
B(  8-N , 10-C ) :   0.1140 B(  8-N , 12-C ) :  -0.1286 B(  8-N , 13-C ) :   0.9364
B(  9-N , 10-C ) :   1.4360 B(  9-N , 12-C ) :   0.1086 B( 10-C , 11-C ) :   0.6733
B( 10-C , 20-H ) :   0.9935 B( 11-C , 12-C ) :   1.5032 B( 11-C , 21-H ) :   1.0884
B( 12-C , 13-C ) :   0.5670 B( 12-C , 22-H ) :   1.1161 B( 13-C , 23-H ) :   1.1388

-----------------------------------------------------------------------------
         ABSORPTION SPECTRUM VIA TRANSITION ELECTRIC DIPOLE MOMENTS
-----------------------------------------------------------------------------
State   Energy    Wavelength  fosc         T2        TX        TY        TZ
        (cm-1)      (nm)                 (au**2)    (au)      (au)      (au)
-----------------------------------------------------------------------------
   1   35544.4    281.3   0.095494171   0.88447   0.86518   0.11511  -0.35027
   2   40967.4    244.1   0.004027501   0.03236  -0.04497  -0.11295  -0.13261
   3   45833.6    218.2   0.001295592   0.00931   0.00320  -0.08513  -0.04526
   4   47183.8    211.9   0.000546208   0.00381   0.01024  -0.03137   0.05217
   5   49363.3    202.6   0.005847967   0.03900  -0.07843   0.06628  -0.16869
   6   50667.5    197.4   0.006717902   0.04365  -0.06617  -0.18357  -0.07465
   7   51314.7    194.9   0.026008136   0.16686  -0.09829   0.34498  -0.19540
   8   52827.8    189.3   0.028179153   0.17561   0.15973  -0.19041   0.33740
   9   53736.3    186.1   0.096870744   0.59347  -0.11458  -0.75911  -0.06402
  10   54777.3    182.6   0.049495409   0.29747  -0.14053   0.46813  -0.24203

FINAL SINGLE POINT ENERGY      -643.009097764839

DIPOLE MOMENT
-------------
                                X             Y             Z
Electronic contribution:     -0.18743      -1.06355       0.04505
Nuclear contribution   :     -0.92512       3.54965       1.04003
                        -----------------------------------------
Total Dipole Moment    :     -1.11254       2.48610       1.08508
                        -----------------------------------------
Magnitude (a.u.)       :      2.93186
Magnitude (Debye)      :      7.45221

Rotational constants in cm-1:     0.029633     0.022573     0.015172
Rotational constants in MHz :   888.383786   676.720250   454.835469

                             ****ORCA TERMINATED NORMALLY****
TOTAL RUN TIME: 0 days 9 hours 50 minutes 25 seconds 623 msec
