                         Program Version 5.0.2 -  RELEASE  -
|  1> ! pbe0 d3bj aug-cc-PVTZ RIJCOSX Opt
|  2> %maxcore 4000
|  3> %basis
|  4>  AuxJ "aug-cc-PVTZ/JK"
|  5>  AuxC "aug-cc-PVTZ/C"
|  6>  newGTO H "cc-PVTZ" end
|  7>  newAuxJGTO H "cc-PVTZ/JK" end
|  8>  newAuxCGTO H "cc-PVTZ/C" end
|  9> end
| 10> %cpcm
| 11>  SMD true
| 12>  SMDsolvent "ethanol"
| 13> end
| 14> %pal nprocs 4 end
| 15> * xyz 0 1
| 16> N         -2.13160       -3.53150       -0.43250
| 17> C         -1.57570       -2.55260       -0.63200
| 18> C         -0.89460       -1.30680       -0.85160
| 19> C          0.62070       -1.46820       -1.05290
| 20> C          1.21490       -0.12200       -0.62600
| 21> C          2.51050       -0.27790        0.19930
| 22> N          2.91190        0.89490        0.72050
| 23> O          3.09230       -1.32760        0.33320
| 24> N          0.18610        0.51360        0.17560
| 25> N          0.17690        1.82820        0.27800
| 26> C         -0.90910        2.43540        0.60720
| 27> C         -2.17820        1.75380        0.67270
| 28> C         -2.22420        0.42980        0.50170
| 29> C         -0.96120       -0.36810        0.38090
| 30> H         -1.34710       -0.80480       -1.71590
| 31> H          1.01430       -2.25180       -0.40120
| 32> H          0.87550       -1.71890       -2.08030
| 33> H          1.45630        0.51580       -1.48700
| 34> H          3.70900        0.91340        1.33490
| 35> H          2.30520        1.70030        0.66600
| 36> H         -0.83820        3.50140        0.74460
| 37> H         -3.07550        2.34250        0.77660
| 38> H         -3.14950       -0.12280        0.43620
| 39> H         -0.78870       -0.97630        1.28840
| 40> *
| 41>
| 42>
| 43> $new_job
| 44> ! b2gp-plyp aug-cc-PVTZ RIJCOSX SP
| 45> %maxcore 4000
| 46> %basis
| 47>  AuxJ "aug-cc-PVTZ/JK"
| 48>  AuxC "aug-cc-PVTZ/C"
| 49>  newGTO H "cc-PVTZ" end
| 50>  newAuxJGTO H "cc-PVTZ/JK" end
| 51>  newAuxCGTO H "cc-PVTZ/C" end
| 52> end
| 53> %cpcm
| 54>  SMD true
| 55>  SMDsolvent "ethanol"
| 56> end
| 57> %pal nprocs 4 end
| 58> %tddft
| 59>  nroots 10
| 60>  maxdim 7
| 61> end
| 62> * xyzfile 0 1
| 63>
| 64>                          ****END OF INPUT****
 Total Charge           Charge          ....    0
 Multiplicity           Mult            ....    1
 Number of Electrons    NEL             ....  100
Dispersion correction           -0.026346502
FINAL SINGLE POINT ENERGY      -642.695303337868
Dispersion correction            ... done
Dispersion correction           -0.026262817
FINAL SINGLE POINT ENERGY      -642.696834296867
Dispersion correction            ... done
Dispersion correction           -0.026262146
FINAL SINGLE POINT ENERGY      -642.697318093845
Dispersion correction            ... done
FINAL SINGLE POINT ENERGY      -642.697556512756
FINAL SINGLE POINT ENERGY      -642.697793232973
FINAL SINGLE POINT ENERGY      -642.698156620670
FINAL SINGLE POINT ENERGY      -642.698478529151
FINAL SINGLE POINT ENERGY      -642.698818155306
FINAL SINGLE POINT ENERGY      -642.699280453564
FINAL SINGLE POINT ENERGY      -642.699775060185
FINAL SINGLE POINT ENERGY      -642.701256223630
FINAL SINGLE POINT ENERGY      -642.701567091271
FINAL SINGLE POINT ENERGY      -642.701858341724
FINAL SINGLE POINT ENERGY      -642.702034832157
FINAL SINGLE POINT ENERGY      -642.702129109604
FINAL SINGLE POINT ENERGY      -642.702171480647
FINAL SINGLE POINT ENERGY      -642.702186135709
Dispersion correction            ... done
Dispersion correction           -0.026743549
FINAL SINGLE POINT ENERGY      -642.702189062774
Dispersion correction            ... done
                    ***********************HURRAY********************
Dispersion correction           -0.026746391
FINAL SINGLE POINT ENERGY      -642.702188685525

CARTESIAN COORDINATES (ANGSTROEM)
---------------------------------
  N     -2.068797   -3.350841   -0.314251
  C     -1.520470   -2.363768   -0.537162
  C     -0.843095   -1.112639   -0.778564
  C      0.628601   -1.267893   -1.183752
  C      1.303295    0.027538   -0.664404
  C      2.558408   -0.288177    0.130206
  N      2.628780    0.233802    1.351852
  O      3.443342   -0.978039   -0.374756
  N      0.292895    0.750762    0.097082
  N     -0.073502    1.931870   -0.480253
  C     -1.235092    2.402398   -0.207727
  C     -2.205313    1.711282    0.615419
  C     -1.970614    0.445822    0.958950
  C     -0.726637   -0.221014    0.490998
  H     -1.404680   -0.563726   -1.539374
  H      1.060592   -2.144046   -0.700770
  H      0.739664   -1.380182   -2.259388
  H      1.621348    0.661764   -1.492064
  H      3.445049    0.079453    1.922050
  H      1.873874    0.806130    1.694846
  H     -1.463291    3.373518   -0.631539
  H     -3.108881    2.228037    0.913668
  H     -2.672894   -0.137871    1.541585
  H     -0.302582   -0.844378    1.283746

 Multiplicity           Mult            ....    1
 Number of Electrons    NEL             ....  100
 Basis Dimension        Dim             ....  784

ORBITAL ENERGIES
----------------

  NO   OCC          E(Eh)            E(eV)
   0   2.0000     -19.915952      -541.9406
   1   2.0000     -15.071787      -410.1242
   2   2.0000     -15.067850      -410.0170
   3   2.0000     -15.047539      -409.4643
   4   2.0000     -15.036804      -409.1722
   5   2.0000     -10.896947      -296.5210
   6   2.0000     -10.832406      -294.7647
   7   2.0000     -10.830914      -294.7242
   8   2.0000     -10.823233      -294.5152
   9   2.0000     -10.820827      -294.4497
  10   2.0000     -10.812914      -294.2343
  11   2.0000     -10.795043      -293.7480
  12   2.0000     -10.789116      -293.5868
  13   2.0000     -10.785966      -293.5011
  14   2.0000      -1.246569       -33.9209
  15   2.0000      -1.217377       -33.1265
  16   2.0000      -1.103417       -30.0255
  17   2.0000      -1.093119       -29.7453
  18   2.0000      -1.053290       -28.6615
  19   2.0000      -0.990983       -26.9660
  20   2.0000      -0.941277       -25.6134
  21   2.0000      -0.904522       -24.6133
  22   2.0000      -0.795904       -21.6577
  23   2.0000      -0.780901       -21.2494
  24   2.0000      -0.773816       -21.0566
  25   2.0000      -0.705949       -19.2099
  26   2.0000      -0.668705       -18.1964
  27   2.0000      -0.646702       -17.5976
  28   2.0000      -0.637354       -17.3433
  29   2.0000      -0.613992       -16.7076
  30   2.0000      -0.609710       -16.5910
  31   2.0000      -0.580579       -15.7984
  32   2.0000      -0.561979       -15.2922
  33   2.0000      -0.540824       -14.7166
  34   2.0000      -0.530386       -14.4325
  35   2.0000      -0.520585       -14.1658
  36   2.0000      -0.514607       -14.0032
  37   2.0000      -0.492588       -13.4040
  38   2.0000      -0.489226       -13.3125
  39   2.0000      -0.479439       -13.0462
  40   2.0000      -0.463498       -12.6124
  41   2.0000      -0.456905       -12.4330
  42   2.0000      -0.443769       -12.0756
  43   2.0000      -0.414553       -11.2806
  44   2.0000      -0.409271       -11.1368
  45   2.0000      -0.387134       -10.5345
  46   2.0000      -0.370597       -10.0845
  47   2.0000      -0.365129        -9.9357
  48   2.0000      -0.358546        -9.7565
  49   2.0000      -0.276967        -7.5367
  50   0.0000       0.019108         0.5199
  51   0.0000       0.025911         0.7051
  52   0.0000       0.037112         1.0099
  53   0.0000       0.038255         1.0410
  54   0.0000       0.039798         1.0830

MULLIKEN ATOMIC CHARGES
-----------------------
   0 N :   -0.786971
   1 C :    0.273290
   2 C :    0.397336
   3 C :   -0.381779
   4 C :    0.327435
   5 C :    0.410413
   6 N :   -0.376659
   7 O :   -0.854688
   8 N :    0.383574
   9 N :   -0.782058
  10 C :   -0.321269
  11 C :   -0.243218
  12 C :   -0.482458
  13 C :    0.462819
  14 H :    0.119603
  15 H :    0.177450
  16 H :    0.194582
  17 H :    0.191143
  18 H :    0.178986
  19 H :    0.224302
  20 H :    0.288837
  21 H :    0.219542
  22 H :    0.220305
  23 H :    0.159483
Sum of atomic charges:   -0.0000000

LOEWDIN ATOMIC CHARGES
----------------------
   0 N :    0.213769
   1 C :   -0.322778
   2 C :   -0.347895
   3 C :   -0.049940
   4 C :   -0.420807
   5 C :   -0.991993
   6 N :    0.470220
   7 O :    0.310792
   8 N :   -0.076156
   9 N :    0.135520
  10 C :   -0.243280
  11 C :   -0.101662
  12 C :   -0.049054
  13 C :   -0.417235
  14 H :    0.259889
  15 H :    0.210744
  16 H :    0.182455
  17 H :    0.250457
  18 H :    0.091897
  19 H :    0.108399
  20 H :    0.168809
  21 H :    0.171093
  22 H :    0.184311
  23 H :    0.262446

  Mayer bond orders larger than 0.100000
B(  0-N ,  1-C ) :   2.1300 B(  1-C ,  2-C ) :   0.7539 B(  1-C ,  3-C ) :   0.1121
B(  2-C ,  3-C ) :   0.8497 B(  2-C , 13-C ) :   0.9303 B(  2-C , 14-H ) :   0.9957
B(  3-C ,  4-C ) :   0.9483 B(  3-C ,  5-C ) :   0.1035 B(  3-C , 15-H ) :   0.9890
B(  3-C , 16-H ) :   0.9980 B(  4-C ,  5-C ) :   0.6277 B(  4-C ,  8-N ) :   0.9367
B(  4-C , 17-H ) :   1.0052 B(  5-C ,  6-N ) :   1.0730 B(  5-C ,  7-O ) :   1.3198
B(  6-N , 18-H ) :   1.0103 B(  6-N , 19-H ) :   0.9637 B(  8-N , 13-C ) :   0.9067
B(  9-N , 10-C ) :   1.5805 B(  9-N , 12-C ) :   0.1092 B( 10-C , 11-C ) :   0.7290
B( 10-C , 20-H ) :   0.9246 B( 11-C , 12-C ) :   1.6167 B( 11-C , 21-H ) :   1.0113
B( 12-C , 13-C ) :   0.6394 B( 12-C , 22-H ) :   1.0601 B( 13-C , 23-H ) :   1.0425

MP2 TOTAL ENERGY:     -642.794480053 Eh

-----------------------------------------------------------------------------
         ABSORPTION SPECTRUM VIA TRANSITION ELECTRIC DIPOLE MOMENTS
-----------------------------------------------------------------------------
State   Energy    Wavelength  fosc         T2        TX        TY        TZ
        (cm-1)      (nm)                 (au**2)    (au)      (au)      (au)
-----------------------------------------------------------------------------
   1   33276.8    300.5   0.108752448   1.07590   0.93392   0.22323  -0.39225
   2   42374.8    236.0   0.005232211   0.04065   0.00906   0.08597   0.18214
   3   43600.9    229.4   0.000655347   0.00495  -0.00366   0.04264   0.05583
   4   46319.5    215.9   0.007218286   0.05130  -0.06458   0.02977  -0.21505
   5   48156.4    207.7   0.009019465   0.06166  -0.08809  -0.21614  -0.08475
   6   48272.4    207.2   0.018770600   0.12801   0.09031   0.33918   0.06939
   7   48716.9    205.3   0.018980801   0.12827   0.11363  -0.22649   0.25309
   8   51552.1    194.0   0.001332287   0.00851  -0.04329  -0.05138  -0.06320
   9   52141.1    191.8   0.030593278   0.19316  -0.16200  -0.33610  -0.23229
  10   51674.1    193.5   0.172363335   1.09811  -0.25372   0.94042  -0.38645

Dispersion correction           -0.017037890
FINAL SINGLE POINT ENERGY      -641.623500240675

DIPOLE MOMENT
-------------
                                X             Y             Z
Electronic contribution:     -0.28884      -0.92931      -0.05819
Nuclear contribution   :     -1.01590       3.30209       1.19138
                        -----------------------------------------
Total Dipole Moment    :     -1.30474       2.37278       1.13319
                        -----------------------------------------
Magnitude (a.u.)       :      2.93539
Magnitude (Debye)      :      7.46118

Rotational constants in cm-1:     0.029555     0.022463     0.014859
Rotational constants in MHz :   886.027226   673.418003   445.470209

                             ****ORCA TERMINATED NORMALLY****
TOTAL RUN TIME: 0 days 5 hours 32 minutes 11 seconds 229 msec
