                         Program Version 5.0.2 -  RELEASE  -
|  1> ! pbe0 aug-cc-PVTZ RIJCOSX Opt
|  2> %maxcore 4000
|  3> %basis
|  4>  AuxJ "aug-cc-PVTZ/JK"
|  5>  AuxC "aug-cc-PVTZ/C"
|  6>  newGTO H "cc-PVTZ" end
|  7>  newAuxJGTO H "cc-PVTZ/JK" end
|  8>  newAuxCGTO H "cc-PVTZ/C" end
|  9> end
| 10> %cpcm
| 11>  SMD true
| 12>  SMDsolvent "ethanol"
| 13> end
| 14> %pal nprocs 4 end
| 15> * xyz 0 1
| 16> N         -2.13160       -3.53150       -0.43250
| 17> C         -1.57570       -2.55260       -0.63200
| 18> C         -0.89460       -1.30680       -0.85160
| 19> C          0.62070       -1.46820       -1.05290
| 20> C          1.21490       -0.12200       -0.62600
| 21> C          2.51050       -0.27790        0.19930
| 22> N          2.91190        0.89490        0.72050
| 23> O          3.09230       -1.32760        0.33320
| 24> N          0.18610        0.51360        0.17560
| 25> N          0.17690        1.82820        0.27800
| 26> C         -0.90910        2.43540        0.60720
| 27> C         -2.17820        1.75380        0.67270
| 28> C         -2.22420        0.42980        0.50170
| 29> C         -0.96120       -0.36810        0.38090
| 30> H         -1.34710       -0.80480       -1.71590
| 31> H          1.01430       -2.25180       -0.40120
| 32> H          0.87550       -1.71890       -2.08030
| 33> H          1.45630        0.51580       -1.48700
| 34> H          3.70900        0.91340        1.33490
| 35> H          2.30520        1.70030        0.66600
| 36> H         -0.83820        3.50140        0.74460
| 37> H         -3.07550        2.34250        0.77660
| 38> H         -3.14950       -0.12280        0.43620
| 39> H         -0.78870       -0.97630        1.28840
| 40> *
| 41>
| 42>
| 43> $new_job
| 44> ! pbe0 aug-cc-PVTZ RIJCOSX SP
| 45> %maxcore 4000
| 46> %basis
| 47>  AuxJ "aug-cc-PVTZ/JK"
| 48>  AuxC "aug-cc-PVTZ/C"
| 49>  newGTO H "cc-PVTZ" end
| 50>  newAuxJGTO H "cc-PVTZ/JK" end
| 51>  newAuxCGTO H "cc-PVTZ/C" end
| 52> end
| 53> %cpcm
| 54>  SMD true
| 55>  SMDsolvent "ethanol"
| 56> end
| 57> %pal nprocs 4 end
| 58> %tddft
| 59>  nroots 10
| 60>  maxdim 7
| 61> end
| 62> * xyzfile 0 1
| 63>
| 64>                          ****END OF INPUT****
 Total Charge           Charge          ....    0
 Multiplicity           Mult            ....    1
 Number of Electrons    NEL             ....  100
FINAL SINGLE POINT ENERGY      -642.668956835527
FINAL SINGLE POINT ENERGY      -642.670592182746
FINAL SINGLE POINT ENERGY      -642.671066075831
FINAL SINGLE POINT ENERGY      -642.671318097223
FINAL SINGLE POINT ENERGY      -642.671540847668
FINAL SINGLE POINT ENERGY      -642.671893457618
FINAL SINGLE POINT ENERGY      -642.672202679401
FINAL SINGLE POINT ENERGY      -642.672519303173
FINAL SINGLE POINT ENERGY      -642.672763370828
FINAL SINGLE POINT ENERGY      -642.673214662317
FINAL SINGLE POINT ENERGY      -642.673947631583
FINAL SINGLE POINT ENERGY      -642.674049754106
FINAL SINGLE POINT ENERGY      -642.674160122512
FINAL SINGLE POINT ENERGY      -642.674299163884
FINAL SINGLE POINT ENERGY      -642.674370880411
FINAL SINGLE POINT ENERGY      -642.674401496183
FINAL SINGLE POINT ENERGY      -642.674409183556
FINAL SINGLE POINT ENERGY      -642.674412531364
                    ***********************HURRAY********************
FINAL SINGLE POINT ENERGY      -642.674413444626

CARTESIAN COORDINATES (ANGSTROEM)
---------------------------------
  N     -2.114116   -3.476893   -0.312263
  C     -1.542155   -2.500244   -0.520056
  C     -0.839715   -1.259025   -0.756948
  C      0.673403   -1.428902   -0.921973
  C      1.212455   -0.010512   -0.687945
  C      2.620690   -0.056257   -0.121251
  N      2.762705    0.318856    1.147548
  O      3.548187   -0.444030   -0.831335
  N      0.223968    0.631151    0.167319
  N      0.107085    1.964833   -0.016781
  C     -1.016447    2.532273    0.232684
  C     -2.221090    1.797111    0.559343
  C     -2.187302    0.467030    0.610470
  C     -0.908567   -0.273952    0.436706
  H     -1.273841   -0.785387   -1.642389
  H      1.044964   -2.112558   -0.156058
  H      0.950930   -1.812864   -1.900434
  H      1.277617    0.525294   -1.638856
  H      3.671720    0.297817    1.582148
  H      1.967517    0.652693    1.667651
  H     -1.040458    3.609707    0.119977
  H     -3.145773    2.343727    0.698045
  H     -3.080659   -0.124116    0.779253
  H     -0.691118   -0.855951    1.341545

 Multiplicity           Mult            ....    1
 Number of Electrons    NEL             ....  100
 Basis Dimension        Dim             ....  784

ORBITAL ENERGIES
----------------

  NO   OCC          E(Eh)            E(eV)
   0   2.0000     -19.184936      -522.0486
   1   2.0000     -14.439580      -392.9210
   2   2.0000     -14.424923      -392.5221
   3   2.0000     -14.408244      -392.0682
   4   2.0000     -14.391660      -391.6170
   5   2.0000     -10.334052      -281.2039
   6   2.0000     -10.285706      -279.8883
   7   2.0000     -10.277031      -279.6522
   8   2.0000     -10.276353      -279.6338
   9   2.0000     -10.275550      -279.6119
  10   2.0000     -10.254134      -279.0292
  11   2.0000     -10.245558      -278.7958
  12   2.0000     -10.242809      -278.7210
  13   2.0000     -10.235332      -278.5175
  14   2.0000      -1.078455       -29.3463
  15   2.0000      -1.059190       -28.8220
  16   2.0000      -0.950401       -25.8617
  17   2.0000      -0.942987       -25.6600
  18   2.0000      -0.913956       -24.8700
  19   2.0000      -0.853501       -23.2249
  20   2.0000      -0.809267       -22.0213
  21   2.0000      -0.779483       -21.2108
  22   2.0000      -0.685539       -18.6545
  23   2.0000      -0.670990       -18.2586
  24   2.0000      -0.660458       -17.9720
  25   2.0000      -0.608652       -16.5623
  26   2.0000      -0.576830       -15.6963
  27   2.0000      -0.555149       -15.1064
  28   2.0000      -0.546020       -14.8580
  29   2.0000      -0.523906       -14.2562
  30   2.0000      -0.513012       -13.9598
  31   2.0000      -0.489775       -13.3275
  32   2.0000      -0.480044       -13.0627
  33   2.0000      -0.461835       -12.5672
  34   2.0000      -0.451487       -12.2856
  35   2.0000      -0.435171       -11.8416
  36   2.0000      -0.427528       -11.6336
  37   2.0000      -0.418435       -11.3862
  38   2.0000      -0.409951       -11.1553
  39   2.0000      -0.400314       -10.8931
  40   2.0000      -0.390207       -10.6181
  41   2.0000      -0.382123       -10.3981
  42   2.0000      -0.368636       -10.0311
  43   2.0000      -0.352194        -9.5837
  44   2.0000      -0.347666        -9.4605
  45   2.0000      -0.319407        -8.6915
  46   2.0000      -0.299473        -8.1491
  47   2.0000      -0.295619        -8.0442
  48   2.0000      -0.282986        -7.7004
  49   2.0000      -0.217825        -5.9273
  50   0.0000      -0.048299        -1.3143
  51   0.0000       0.001042         0.0284
  52   0.0000       0.006339         0.1725
  53   0.0000       0.015912         0.4330
  54   0.0000       0.016230         0.4416

MULLIKEN ATOMIC CHARGES
-----------------------
   0 N :   -0.756823
   1 C :    0.315829
   2 C :    0.396808
   3 C :   -0.412880
   4 C :    0.397711
   5 C :    0.379742
   6 N :   -0.280758
   7 O :   -0.799446
   8 N :    0.591818
   9 N :   -0.892513
  10 C :   -0.279536
  11 C :   -0.240528
  12 C :   -0.403922
  13 C :    0.228707
  14 H :    0.082745
  15 H :    0.153324
  16 H :    0.185441
  17 H :    0.121623
  18 H :    0.158952
  19 H :    0.198441
  20 H :    0.277199
  21 H :    0.221237
  22 H :    0.213894
  23 H :    0.142936
Sum of atomic charges:   -0.0000000

LOEWDIN ATOMIC CHARGES
----------------------
   0 N :    0.222218
   1 C :   -0.326741
   2 C :   -0.360849
   3 C :   -0.062641
   4 C :   -0.441085
   5 C :   -1.007555
   6 N :    0.474324
   7 O :    0.333714
   8 N :   -0.054614
   9 N :    0.136972
  10 C :   -0.255252
  11 C :   -0.116273
  12 C :   -0.059433
  13 C :   -0.400205
  14 H :    0.262331
  15 H :    0.220454
  16 H :    0.191831
  17 H :    0.254296
  18 H :    0.093994
  19 H :    0.109626
  20 H :    0.166019
  21 H :    0.172235
  22 H :    0.189709
  23 H :    0.256924

  Mayer bond orders larger than 0.100000
B(  0-N ,  1-C ) :   2.0300 B(  1-C ,  2-C ) :   0.8399 B(  2-C ,  3-C ) :   0.9408
B(  2-C , 13-C ) :   0.9383 B(  2-C , 14-H ) :   0.9917 B(  3-C ,  4-C ) :   0.9129
B(  3-C ,  5-C ) :   0.1096 B(  3-C , 15-H ) :   0.9921 B(  3-C , 16-H ) :   0.9691
B(  4-C ,  5-C ) :   0.7360 B(  4-C ,  8-N ) :   1.0024 B(  4-C , 17-H ) :   0.9818
B(  5-C ,  6-N ) :   1.1177 B(  5-C ,  7-O ) :   1.2915 B(  5-C ,  9-N ) :   0.1007
B(  6-N , 18-H ) :   1.0086 B(  6-N , 19-H ) :   0.9728 B(  8-N ,  9-N ) :  -0.2117
B(  8-N , 10-C ) :   0.1109 B(  8-N , 13-C ) :   0.8451 B(  9-N , 10-C ) :   1.6500
B( 10-C , 11-C ) :   0.8399 B( 10-C , 20-H ) :   0.9027 B( 11-C , 12-C ) :   1.6475
B( 11-C , 21-H ) :   0.9478 B( 12-C , 13-C ) :   0.7569 B( 12-C , 22-H ) :   0.9713
B( 13-C , 23-H ) :   1.0204

-----------------------------------------------------------------------------
         ABSORPTION SPECTRUM VIA TRANSITION ELECTRIC DIPOLE MOMENTS
-----------------------------------------------------------------------------
State   Energy    Wavelength  fosc         T2        TX        TY        TZ
        (cm-1)      (nm)                 (au**2)    (au)      (au)      (au)
-----------------------------------------------------------------------------
   1   30533.3    327.5   0.106666090   1.15008  -1.05603   0.02764   0.18470
   2   40244.6    248.5   0.008656751   0.07081   0.09909  -0.20877   0.13195
   3   40929.8    244.3   0.006374903   0.05128  -0.02984  -0.18977  -0.11988
   4   41009.6    243.8   0.012027212   0.09655   0.14233   0.17251  -0.21572
   5   44402.7    225.2   0.022663843   0.16803   0.04164   0.40767  -0.01026
   6   44852.4    223.0   0.040103802   0.29436  -0.18950  -0.46979  -0.19427
   7   45451.3    220.0   0.026665003   0.19314  -0.17858  -0.38282  -0.12124
   8   45798.8    218.3   0.010214817   0.07343  -0.00370  -0.24311   0.11963
   9   46114.4    216.9   0.022613082   0.16144  -0.03798  -0.37415  -0.14144
  10   47101.9    212.3   0.001993544   0.01393   0.04073  -0.10445   0.03694

FINAL SINGLE POINT ENERGY      -642.535293461157

DIPOLE MOMENT
-------------
                                X             Y             Z
Electronic contribution:      0.01802      -1.03899      -0.19487
Nuclear contribution   :     -1.21287       2.71172       1.41905
                        -----------------------------------------
Total Dipole Moment    :     -1.19486       1.67273       1.22417
                        -----------------------------------------
Magnitude (a.u.)       :      2.39255
Magnitude (Debye)      :      6.08139

Rotational constants in cm-1:     0.029420     0.022006     0.013848
Rotational constants in MHz :   881.982721   659.723008   415.165693

                             ****ORCA TERMINATED NORMALLY****
TOTAL RUN TIME: 0 days 4 hours 15 minutes 46 seconds 898 msec
