                         Program Version 5.0.2 -  RELEASE  -
|  1> ! wb97x-d3 aug-cc-PVTZ RIJCOSX Opt
|  2> %maxcore 4000
|  3> %basis
|  4>  AuxJ "aug-cc-PVTZ/JK"
|  5>  AuxC "aug-cc-PVTZ/C"
|  6>  newGTO H "cc-PVTZ" end
|  7>  newAuxJGTO H "cc-PVTZ/JK" end
|  8>  newAuxCGTO H "cc-PVTZ/C" end
|  9> end
| 10> %cpcm
| 11>  SMD true
| 12>  SMDsolvent "ethanol"
| 13> end
| 14> %pal nprocs 4 end
| 15> * xyz 0 1
| 16> N         -2.13160       -3.53150       -0.43250
| 17> C         -1.57570       -2.55260       -0.63200
| 18> C         -0.89460       -1.30680       -0.85160
| 19> C          0.62070       -1.46820       -1.05290
| 20> C          1.21490       -0.12200       -0.62600
| 21> C          2.51050       -0.27790        0.19930
| 22> N          2.91190        0.89490        0.72050
| 23> O          3.09230       -1.32760        0.33320
| 24> N          0.18610        0.51360        0.17560
| 25> N          0.17690        1.82820        0.27800
| 26> C         -0.90910        2.43540        0.60720
| 27> C         -2.17820        1.75380        0.67270
| 28> C         -2.22420        0.42980        0.50170
| 29> C         -0.96120       -0.36810        0.38090
| 30> H         -1.34710       -0.80480       -1.71590
| 31> H          1.01430       -2.25180       -0.40120
| 32> H          0.87550       -1.71890       -2.08030
| 33> H          1.45630        0.51580       -1.48700
| 34> H          3.70900        0.91340        1.33490
| 35> H          2.30520        1.70030        0.66600
| 36> H         -0.83820        3.50140        0.74460
| 37> H         -3.07550        2.34250        0.77660
| 38> H         -3.14950       -0.12280        0.43620
| 39> H         -0.78870       -0.97630        1.28840
| 40> *
| 41>
| 42>
| 43> $new_job
| 44> ! wb97x-d3 aug-cc-PVTZ RIJCOSX SP
| 45> %maxcore 4000
| 46> %basis
| 47>  AuxJ "aug-cc-PVTZ/JK"
| 48>  AuxC "aug-cc-PVTZ/C"
| 49>  newGTO H "cc-PVTZ" end
| 50>  newAuxJGTO H "cc-PVTZ/JK" end
| 51>  newAuxCGTO H "cc-PVTZ/C" end
| 52> end
| 53> %cpcm
| 54>  SMD true
| 55>  SMDsolvent "ethanol"
| 56> end
| 57> %pal nprocs 4 end
| 58> %tddft
| 59>  nroots 10
| 60>  maxdim 7
| 61> end
| 62> * xyzfile 0 1
| 63>
| 64>                          ****END OF INPUT****
 Total Charge           Charge          ....    0
 Multiplicity           Mult            ....    1
 Number of Electrons    NEL             ....  100
Dispersion correction           -0.010542271
FINAL SINGLE POINT ENERGY      -643.228913458797
Dispersion correction            ... done
Dispersion correction           -0.010495469
FINAL SINGLE POINT ENERGY      -643.230898288393
Dispersion correction            ... done
Dispersion correction           -0.010499353
FINAL SINGLE POINT ENERGY      -643.231470157559
Dispersion correction            ... done
FINAL SINGLE POINT ENERGY      -643.231777794919
FINAL SINGLE POINT ENERGY      -643.232092033525
FINAL SINGLE POINT ENERGY      -643.232600657951
FINAL SINGLE POINT ENERGY      -643.233098052215
FINAL SINGLE POINT ENERGY      -643.233593199427
FINAL SINGLE POINT ENERGY      -643.234018075387
FINAL SINGLE POINT ENERGY      -643.234309807844
FINAL SINGLE POINT ENERGY      -643.236777956442
FINAL SINGLE POINT ENERGY      -643.236918436342
FINAL SINGLE POINT ENERGY      -643.237056261778
FINAL SINGLE POINT ENERGY      -643.237129703342
FINAL SINGLE POINT ENERGY      -643.237132777291
FINAL SINGLE POINT ENERGY      -643.237177723453
Dispersion correction           -0.010995693
FINAL SINGLE POINT ENERGY      -643.237188251059
Dispersion correction            ... done
Dispersion correction           -0.010997291
FINAL SINGLE POINT ENERGY      -643.237191370324
Dispersion correction            ... done
                    ***********************HURRAY********************
Dispersion correction           -0.010997132
FINAL SINGLE POINT ENERGY      -643.237192610263

CARTESIAN COORDINATES (ANGSTROEM)
---------------------------------
  N     -2.009741   -3.369339   -0.295282
  C     -1.492211   -2.369526   -0.520087
  C     -0.845300   -1.094979   -0.773948
  C      0.615935   -1.220095   -1.239721
  C      1.312960    0.035030   -0.650354
  C      2.535055   -0.340198    0.178929
  N      2.645882    0.242959    1.371512
  O      3.369978   -1.119464   -0.278895
  N      0.301815    0.766579    0.107764
  N     -0.105629    1.916598   -0.532141
  C     -1.270979    2.369371   -0.263598
  C     -2.214109    1.697252    0.619120
  C     -1.954459    0.448519    0.991751
  C     -0.710333   -0.214780    0.501278
  H     -1.446053   -0.558201   -1.510511
  H      1.066539   -2.128550   -0.844564
  H      0.685540   -1.248531   -2.323080
  H      1.681922    0.689735   -1.438387
  H      3.448007    0.056741    1.950594
  H      1.932558    0.877103    1.690606
  H     -1.534891    3.308144   -0.734672
  H     -3.110612    2.217834    0.927360
  H     -2.626662   -0.126657    1.615155
  H     -0.275213   -0.835745    1.287570

 Multiplicity           Mult            ....    1
 Number of Electrons    NEL             ....  100
 Basis Dimension        Dim             ....  784

ORBITAL ENERGIES
----------------

  NO   OCC          E(Eh)            E(eV)
   0   2.0000     -19.210088      -522.7331
   1   2.0000     -14.475526      -393.8991
   2   2.0000     -14.462712      -393.5504
   3   2.0000     -14.444940      -393.0668
   4   2.0000     -14.429020      -392.6336
   5   2.0000     -10.391904      -282.7781
   6   2.0000     -10.336624      -281.2738
   7   2.0000     -10.330199      -281.0990
   8   2.0000     -10.327813      -281.0341
   9   2.0000     -10.327506      -281.0257
  10   2.0000     -10.314330      -280.6672
  11   2.0000     -10.298043      -280.2240
  12   2.0000     -10.293694      -280.1056
  13   2.0000     -10.290406      -280.0162
  14   2.0000      -1.166651       -31.7462
  15   2.0000      -1.146741       -31.2044
  16   2.0000      -1.039342       -28.2819
  17   2.0000      -1.032024       -28.0828
  18   2.0000      -1.001445       -27.2507
  19   2.0000      -0.945115       -25.7179
  20   2.0000      -0.901308       -24.5258
  21   2.0000      -0.867641       -23.6097
  22   2.0000      -0.774270       -21.0690
  23   2.0000      -0.759812       -20.6755
  24   2.0000      -0.751192       -20.4410
  25   2.0000      -0.691821       -18.8254
  26   2.0000      -0.661513       -18.0007
  27   2.0000      -0.642959       -17.4958
  28   2.0000      -0.632193       -17.2028
  29   2.0000      -0.610800       -16.6207
  30   2.0000      -0.606573       -16.5057
  31   2.0000      -0.574843       -15.6423
  32   2.0000      -0.564462       -15.3598
  33   2.0000      -0.539769       -14.6879
  34   2.0000      -0.532392       -14.4871
  35   2.0000      -0.523283       -14.2392
  36   2.0000      -0.514833       -14.0093
  37   2.0000      -0.496775       -13.5179
  38   2.0000      -0.492462       -13.4006
  39   2.0000      -0.484090       -13.1728
  40   2.0000      -0.471093       -12.8191
  41   2.0000      -0.466574       -12.6961
  42   2.0000      -0.450328       -12.2540
  43   2.0000      -0.431725       -11.7478
  44   2.0000      -0.426064       -11.5938
  45   2.0000      -0.400913       -10.9094
  46   2.0000      -0.377687       -10.2774
  47   2.0000      -0.375778       -10.2254
  48   2.0000      -0.365636        -9.9495
  49   2.0000      -0.306894        -8.3510
  50   0.0000       0.023391         0.6365
  51   0.0000       0.046653         1.2695
  52   0.0000       0.056405         1.5349
  53   0.0000       0.057552         1.5661
  54   0.0000       0.060066         1.6345

MULLIKEN ATOMIC CHARGES
-----------------------
   0 N :   -0.775307
   1 C :    0.253871
   2 C :    0.508577
   3 C :   -0.402484
   4 C :    0.239528
   5 C :    0.469930
   6 N :   -0.333275
   7 O :   -0.834907
   8 N :    0.464583
   9 N :   -0.776835
  10 C :   -0.326448
  11 C :   -0.169051
  12 C :   -0.424026
  13 C :    0.320947
  14 H :    0.072870
  15 H :    0.194844
  16 H :    0.157972
  17 H :    0.163324
  18 H :    0.147106
  19 H :    0.206006
  20 H :    0.276564
  21 H :    0.205282
  22 H :    0.205900
  23 H :    0.155031
Sum of atomic charges:   -0.0000000

LOEWDIN ATOMIC CHARGES
----------------------
   0 N :    0.215625
   1 C :   -0.319347
   2 C :   -0.348471
   3 C :   -0.054254
   4 C :   -0.432892
   5 C :   -0.991677
   6 N :    0.468627
   7 O :    0.329030
   8 N :   -0.063200
   9 N :    0.139443
  10 C :   -0.245807
  11 C :   -0.101815
  12 C :   -0.055550
  13 C :   -0.423307
  14 H :    0.259280
  15 H :    0.209918
  16 H :    0.181797
  17 H :    0.249782
  18 H :    0.092040
  19 H :    0.106520
  20 H :    0.167806
  21 H :    0.169959
  22 H :    0.182793
  23 H :    0.263697

  Mayer bond orders larger than 0.100000
B(  0-N ,  1-C ) :   2.0672 B(  1-C ,  2-C ) :   0.6202 B(  1-C , 13-C ) :   0.1337
B(  2-C ,  3-C ) :   0.8288 B(  2-C , 13-C ) :   0.8955 B(  2-C , 14-H ) :   1.0386
B(  3-C ,  4-C ) :   0.8938 B(  3-C , 15-H ) :   0.9860 B(  3-C , 16-H ) :   1.0275
B(  4-C ,  5-C ) :   0.6491 B(  4-C ,  8-N ) :   0.8709 B(  4-C ,  9-N ) :   0.1062
B(  4-C , 17-H ) :   1.0534 B(  5-C ,  6-N ) :   0.9890 B(  5-C ,  7-O ) :   1.2758
B(  6-N , 18-H ) :   1.0408 B(  6-N , 19-H ) :   0.9724 B(  8-N ,  9-N ) :   0.1338
B(  8-N , 10-C ) :   0.1220 B(  8-N , 13-C ) :   0.8960 B(  9-N , 10-C ) :   1.5292
B(  9-N , 12-C ) :   0.1248 B( 10-C , 11-C ) :   0.6856 B( 10-C , 20-H ) :   0.9171
B( 11-C , 12-C ) :   1.6027 B( 11-C , 21-H ) :   1.0020 B( 12-C , 13-C ) :   0.6356
B( 12-C , 22-H ) :   1.0471 B( 13-C , 23-H ) :   1.0740

-----------------------------------------------------------------------------
         ABSORPTION SPECTRUM VIA TRANSITION ELECTRIC DIPOLE MOMENTS
-----------------------------------------------------------------------------
State   Energy    Wavelength  fosc         T2        TX        TY        TZ
        (cm-1)      (nm)                 (au**2)    (au)      (au)      (au)
-----------------------------------------------------------------------------
   1   35631.3    280.7   0.105643924   0.97609   0.92159   0.11002  -0.33860
   2   42737.2    234.0   0.004700687   0.03621  -0.04508  -0.10834  -0.14980
   3   47988.2    208.4   0.000341381   0.00234   0.00928  -0.04665  -0.00894
   4   49334.9    202.7   0.000559707   0.00373  -0.01003  -0.00958   0.05952
   5   52832.4    189.3   0.017752397   0.11062   0.11027  -0.22362   0.22012
   6   53665.4    186.3   0.079419136   0.48720   0.08980  -0.59359   0.35607
   7   54929.7    182.1   0.002472355   0.01482   0.06049  -0.03267   0.10046
   8   55806.5    179.2   0.052512526   0.30978   0.09287  -0.53793   0.10857
   9   56424.7    177.2   0.150451370   0.87781  -0.23626  -0.86937  -0.25726
  10   57696.8    173.3   0.192239940   1.09690   0.18661  -0.99828   0.25596

Dispersion correction           -0.010997132
FINAL SINGLE POINT ENERGY      -643.074844342689

DIPOLE MOMENT
-------------
                                X             Y             Z
Electronic contribution:     -0.17786      -1.11486       0.06181
Nuclear contribution   :     -0.95859       3.58557       1.00699
                        -----------------------------------------
Total Dipole Moment    :     -1.13645       2.47071       1.06880
                        -----------------------------------------
Magnitude (a.u.)       :      2.92203
Magnitude (Debye)      :      7.42722

Rotational constants in cm-1:     0.029398     0.022593     0.015013
Rotational constants in MHz :   881.340112   677.327343   450.066545

                             ****ORCA TERMINATED NORMALLY****
TOTAL RUN TIME: 0 days 5 hours 49 minutes 20 seconds 890 msec
