                         Program Version 5.0.2 -  RELEASE  -
|  1> ! x3lyp aug-cc-PVTZ RIJCOSX Opt
|  2> %maxcore 4000
|  3> %basis
|  4>  AuxJ "aug-cc-PVTZ/JK"
|  5>  AuxC "aug-cc-PVTZ/C"
|  6>  newGTO H "cc-PVTZ" end
|  7>  newAuxJGTO H "cc-PVTZ/JK" end
|  8>  newAuxCGTO H "cc-PVTZ/C" end
|  9> end
| 10> %cpcm
| 11>  SMD true
| 12>  SMDsolvent "ethanol"
| 13> end
| 14> %pal nprocs 4 end
| 15> * xyz 0 1
| 16> N         -2.13160       -3.53150       -0.43250
| 17> C         -1.57570       -2.55260       -0.63200
| 18> C         -0.89460       -1.30680       -0.85160
| 19> C          0.62070       -1.46820       -1.05290
| 20> C          1.21490       -0.12200       -0.62600
| 21> C          2.51050       -0.27790        0.19930
| 22> N          2.91190        0.89490        0.72050
| 23> O          3.09230       -1.32760        0.33320
| 24> N          0.18610        0.51360        0.17560
| 25> N          0.17690        1.82820        0.27800
| 26> C         -0.90910        2.43540        0.60720
| 27> C         -2.17820        1.75380        0.67270
| 28> C         -2.22420        0.42980        0.50170
| 29> C         -0.96120       -0.36810        0.38090
| 30> H         -1.34710       -0.80480       -1.71590
| 31> H          1.01430       -2.25180       -0.40120
| 32> H          0.87550       -1.71890       -2.08030
| 33> H          1.45630        0.51580       -1.48700
| 34> H          3.70900        0.91340        1.33490
| 35> H          2.30520        1.70030        0.66600
| 36> H         -0.83820        3.50140        0.74460
| 37> H         -3.07550        2.34250        0.77660
| 38> H         -3.14950       -0.12280        0.43620
| 39> H         -0.78870       -0.97630        1.28840
| 40> *
| 41>
| 42>
| 43> $new_job
| 44> ! x3lyp aug-cc-PVTZ RIJCOSX SP
| 45> %maxcore 4000
| 46> %basis
| 47>  AuxJ "aug-cc-PVTZ/JK"
| 48>  AuxC "aug-cc-PVTZ/C"
| 49>  newGTO H "cc-PVTZ" end
| 50>  newAuxJGTO H "cc-PVTZ/JK" end
| 51>  newAuxCGTO H "cc-PVTZ/C" end
| 52> end
| 53> %cpcm
| 54>  SMD true
| 55>  SMDsolvent "ethanol"
| 56> end
| 57> %pal nprocs 4 end
| 58> %tddft
| 59>  nroots 10
| 60>  maxdim 7
| 61> end
| 62> * xyzfile 0 1
| 63>
| 64>                          ****END OF INPUT****
 Total Charge           Charge          ....    0
 Multiplicity           Mult            ....    1
 Number of Electrons    NEL             ....  100
FINAL SINGLE POINT ENERGY      -642.875687150436
FINAL SINGLE POINT ENERGY      -642.878285332868
FINAL SINGLE POINT ENERGY      -642.878789641846
FINAL SINGLE POINT ENERGY      -642.879099408806
FINAL SINGLE POINT ENERGY      -642.879353977064
FINAL SINGLE POINT ENERGY      -642.879761549025
FINAL SINGLE POINT ENERGY      -642.880143354565
FINAL SINGLE POINT ENERGY      -642.880520461260
FINAL SINGLE POINT ENERGY      -642.880846159375
FINAL SINGLE POINT ENERGY      -642.880960206449
FINAL SINGLE POINT ENERGY      -642.882548999391
FINAL SINGLE POINT ENERGY      -642.882782585472
FINAL SINGLE POINT ENERGY      -642.883041713897
FINAL SINGLE POINT ENERGY      -642.883185543596
FINAL SINGLE POINT ENERGY      -642.883290214288
FINAL SINGLE POINT ENERGY      -642.883348001351
FINAL SINGLE POINT ENERGY      -642.883365762836
FINAL SINGLE POINT ENERGY      -642.883370026427
                    ***********************HURRAY********************
FINAL SINGLE POINT ENERGY      -642.883371282245

CARTESIAN COORDINATES (ANGSTROEM)
---------------------------------
  N     -2.021438   -3.413887   -0.297521
  C     -1.508261   -2.408932   -0.523869
  C     -0.857754   -1.138902   -0.774361
  C      0.621038   -1.270028   -1.202693
  C      1.303655    0.021312   -0.657777
  C      2.566236   -0.301652    0.139141
  N      2.680821    0.269878    1.340052
  O      3.429108   -1.034071   -0.352968
  N      0.284385    0.746178    0.107805
  N     -0.074306    1.947754   -0.461833
  C     -1.236165    2.424504   -0.188860
  C     -2.222851    1.725705    0.614279
  C     -2.002797    0.453303    0.947282
  C     -0.752127   -0.226589    0.496464
  H     -1.434660   -0.610391   -1.535362
  H      1.068268   -2.156255   -0.758241
  H      0.713560   -1.346499   -2.281988
  H      1.628882    0.661576   -1.475897
  H      3.508378    0.114603    1.895234
  H      1.949087    0.867279    1.690391
  H     -1.455839    3.402221   -0.598259
  H     -3.126017    2.245043    0.904041
  H     -2.718474   -0.128872    1.512095
  H     -0.342731   -0.843478    1.299244

 Multiplicity           Mult            ....    1
 Number of Electrons    NEL             ....  100
 Basis Dimension        Dim             ....  784

ORBITAL ENERGIES
----------------

  NO   OCC          E(Eh)            E(eV)
   0   2.0000     -19.136045      -520.7183
   1   2.0000     -14.395588      -391.7239
   2   2.0000     -14.381256      -391.3339
   3   2.0000     -14.366988      -390.9456
   4   2.0000     -14.348453      -390.4413
   5   2.0000     -10.307133      -280.4714
   6   2.0000     -10.253017      -278.9988
   7   2.0000     -10.245685      -278.7993
   8   2.0000     -10.244770      -278.7744
   9   2.0000     -10.242427      -278.7106
  10   2.0000     -10.228031      -278.3189
  11   2.0000     -10.212849      -277.9058
  12   2.0000     -10.210525      -277.8425
  13   2.0000     -10.205692      -277.7110
  14   2.0000      -1.054064       -28.6825
  15   2.0000      -1.030291       -28.0356
  16   2.0000      -0.927947       -25.2507
  17   2.0000      -0.921709       -25.0810
  18   2.0000      -0.886695       -24.1282
  19   2.0000      -0.830613       -22.6021
  20   2.0000      -0.788437       -21.4545
  21   2.0000      -0.756139       -20.5756
  22   2.0000      -0.666382       -18.1332
  23   2.0000      -0.652832       -17.7645
  24   2.0000      -0.645279       -17.5589
  25   2.0000      -0.590135       -16.0584
  26   2.0000      -0.557825       -15.1792
  27   2.0000      -0.538700       -14.6588
  28   2.0000      -0.531960       -14.4754
  29   2.0000      -0.511614       -13.9217
  30   2.0000      -0.504426       -13.7261
  31   2.0000      -0.476436       -12.9645
  32   2.0000      -0.465424       -12.6648
  33   2.0000      -0.441898       -12.0247
  34   2.0000      -0.436093       -11.8667
  35   2.0000      -0.426205       -11.5976
  36   2.0000      -0.418343       -11.3837
  37   2.0000      -0.402412       -10.9502
  38   2.0000      -0.395034       -10.7494
  39   2.0000      -0.387508       -10.5446
  40   2.0000      -0.377464       -10.2713
  41   2.0000      -0.373626       -10.1669
  42   2.0000      -0.359465        -9.7815
  43   2.0000      -0.339635        -9.2419
  44   2.0000      -0.335314        -9.1244
  45   2.0000      -0.309089        -8.4107
  46   2.0000      -0.287460        -7.8222
  47   2.0000      -0.286570        -7.7980
  48   2.0000      -0.274970        -7.4823
  49   2.0000      -0.219720        -5.9789
  50   0.0000      -0.051595        -1.4040
  51   0.0000      -0.005855        -0.1593
  52   0.0000       0.002834         0.0771
  53   0.0000       0.009679         0.2634
  54   0.0000       0.012169         0.3311

MULLIKEN ATOMIC CHARGES
-----------------------
   0 N :   -0.761703
   1 C :    0.303299
   2 C :    0.404083
   3 C :   -0.271237
   4 C :    0.318450
   5 C :    0.415584
   6 N :   -0.280201
   7 O :   -0.814228
   8 N :    0.352238
   9 N :   -0.762156
  10 C :   -0.280073
  11 C :   -0.182948
  12 C :   -0.402276
  13 C :    0.489571
  14 H :    0.044209
  15 H :    0.126671
  16 H :    0.143432
  17 H :    0.125493
  18 H :    0.149807
  19 H :    0.179803
  20 H :    0.251405
  21 H :    0.176142
  22 H :    0.175139
  23 H :    0.099496
Sum of atomic charges:    0.0000000

LOEWDIN ATOMIC CHARGES
----------------------
   0 N :    0.215519
   1 C :   -0.327491
   2 C :   -0.344773
   3 C :   -0.052834
   4 C :   -0.422100
   5 C :   -0.990251
   6 N :    0.465381
   7 O :    0.328094
   8 N :   -0.052847
   9 N :    0.140814
  10 C :   -0.254438
  11 C :   -0.109873
  12 C :   -0.056347
  13 C :   -0.404519
  14 H :    0.255660
  15 H :    0.207073
  16 H :    0.181073
  17 H :    0.247073
  18 H :    0.093675
  19 H :    0.106480
  20 H :    0.165799
  21 H :    0.169564
  22 H :    0.181466
  23 H :    0.257805

  Mayer bond orders larger than 0.100000
B(  0-N ,  1-C ) :   1.9984 B(  0-N ,  2-C ) :   0.1003 B(  1-C ,  2-C ) :   0.7973
B(  2-C ,  3-C ) :   0.8923 B(  2-C , 13-C ) :   0.9239 B(  2-C , 14-H ) :   1.0086
B(  3-C ,  4-C ) :   0.9630 B(  3-C , 15-H ) :   1.0058 B(  3-C , 16-H ) :   1.0030
B(  4-C ,  5-C ) :   0.6910 B(  4-C ,  8-N ) :   0.9375 B(  4-C , 17-H ) :   1.0071
B(  5-C ,  6-N ) :   1.0973 B(  5-C ,  7-O ) :   1.2791 B(  6-N , 18-H ) :   1.0041
B(  6-N , 19-H ) :   0.9762 B(  8-N , 10-C ) :   0.1262 B(  8-N , 13-C ) :   0.8787
B(  9-N , 10-C ) :   1.5678 B(  9-N , 12-C ) :   0.1117 B( 10-C , 11-C ) :   0.7907
B( 10-C , 20-H ) :   0.9158 B( 11-C , 12-C ) :   1.6014 B( 11-C , 21-H ) :   0.9985
B( 12-C , 13-C ) :   0.6813 B( 12-C , 22-H ) :   1.0323 B( 13-C , 23-H ) :   1.0414

-----------------------------------------------------------------------------
         ABSORPTION SPECTRUM VIA TRANSITION ELECTRIC DIPOLE MOMENTS
-----------------------------------------------------------------------------
State   Energy    Wavelength  fosc         T2        TX        TY        TZ
        (cm-1)      (nm)                 (au**2)    (au)      (au)      (au)
-----------------------------------------------------------------------------
   1   32124.5    311.3   0.099026123   1.01482   0.95701   0.04299  -0.31162
   2   40011.6    249.9   0.004584115   0.03772  -0.00012  -0.00247  -0.19419
   3   40270.9    248.3   0.003340175   0.02731  -0.08734   0.13808   0.02472
   4   41814.2    239.2   0.003255309   0.02563   0.01687  -0.15821   0.01773
   5   44093.1    226.8   0.009736278   0.07269  -0.01579   0.22167  -0.15267
   6   44621.7    224.1   0.001199913   0.00885   0.02641  -0.07087   0.05597
   7   45320.2    220.7   0.055427429   0.40263   0.11749   0.62353   0.00591
   8   45655.1    219.0   0.084203703   0.60718  -0.28634  -0.68135  -0.24687
   9   46209.7    216.4   0.003153358   0.02247   0.11868  -0.08538   0.03304
  10   46358.5    215.7   0.002886955   0.02050  -0.00185   0.01619   0.14225

FINAL SINGLE POINT ENERGY      -642.737001119238

DIPOLE MOMENT
-------------
                                X             Y             Z
Electronic contribution:     -0.09167      -1.10318       0.02751
Nuclear contribution   :     -1.01836       3.50144       1.06336
                        -----------------------------------------
Total Dipole Moment    :     -1.11003       2.39826       1.09086
                        -----------------------------------------
Magnitude (a.u.)       :      2.85898
Magnitude (Debye)      :      7.26695

Rotational constants in cm-1:     0.028909     0.022381     0.014624
Rotational constants in MHz :   866.663099   670.954580   438.411071

                             ****ORCA TERMINATED NORMALLY****
TOTAL RUN TIME: 0 days 4 hours 25 minutes 9 seconds 112 msec
