                         Program Version 5.0.2 -  RELEASE  -
|  1> ! b3lyp aug-cc-PVTZ RIJCOSX Opt
|  2> %maxcore 4000
|  3> %basis
|  4>  AuxJ "aug-cc-PVTZ/JK"
|  5>  AuxC "aug-cc-PVTZ/C"
|  6>  newGTO H "cc-PVTZ" end
|  7>  newAuxJGTO H "cc-PVTZ/JK" end
|  8>  newAuxCGTO H "cc-PVTZ/C" end
|  9> end
| 10> %cpcm
| 11>  SMD true
| 12>  SMDsolvent "dichloromethane"
| 13> end
| 14> %pal nprocs 4 end
| 15> * xyz 0 1
| 16> O          1.37360       -3.19720        0.27300
| 17> N          0.43480       -2.34810        0.16420
| 18> C          0.68430       -1.00440        0.07990
| 19> C          2.06010       -0.58820        0.10840
| 20> C          2.45480        0.68660       -0.04490
| 21> C          3.81500        1.17730       -0.01470
| 22> C          4.03890        2.54900       -0.17530
| 23> C          5.31730        3.06950       -0.14920
| 24> C          6.40480        2.23130        0.03690
| 25> C          6.20080        0.86930        0.19610
| 26> C          4.92380        0.34560        0.17150
| 27> N         -0.28860       -0.11830       -0.00780
| 28> C         -1.55630       -0.49690       -0.04370
| 29> N         -2.54310        0.44490       -0.11120
| 30> C         -2.47310        1.83250       -0.12240
| 31> C         -3.65380        2.53130       -0.38160
| 32> C         -3.66330        3.91180       -0.39780
| 33> C         -2.49840        4.62010       -0.15350
| 34> C         -1.32800        3.93050        0.11450
| 35> C         -1.30690        2.54860        0.13460
| 36> C         -1.89660       -1.87410       -0.01220
| 37> C         -0.86350       -2.77240        0.12310
| 38> C         -1.05330       -4.24890        0.24110
| 39> C         -2.49650       -4.60850        0.56160
| 40> C         -3.42190       -3.84490       -0.37670
| 41> C         -3.32360       -2.34580       -0.10360
| 42> H          2.75490       -1.40150        0.25770
| 43> H          1.69090        1.43460       -0.21110
| 44> H          3.19350        3.20660       -0.32130
| 45> H          5.46950        4.13190       -0.27410
| 46> H          7.40580        2.63640        0.05730
| 47> H          7.04650        0.21260        0.34060
| 48> H          4.78350       -0.71650        0.29630
| 49> H         -3.47930        0.08000       -0.20720
| 50> H         -4.56780        1.98400       -0.57170
| 51> H         -4.58500        4.43650       -0.60230
| 52> H         -2.50570        5.69930       -0.16860
| 53> H         -0.41720        4.47550        0.31530
| 54> H         -0.40160        2.00990        0.35070
| 55> H         -0.73870       -4.71330       -0.69920
| 56> H         -0.36190       -4.61450        1.00560
| 57> H         -2.64230       -5.68350        0.45150
| 58> H         -2.72490       -4.34050        1.59530
| 59> H         -4.45570       -4.16960       -0.24700
| 60> H         -3.13190       -4.04740       -1.40980
| 61> H         -3.83910       -1.80770       -0.90550
| 62> H         -3.83470       -2.11390        0.83780
| 63> *
| 64>
| 65>
| 66> $new_job
| 67> ! b3lyp aug-cc-PVTZ RIJCOSX SP
| 68> %maxcore 4000
| 69> %basis
| 70>  AuxJ "aug-cc-PVTZ/JK"
| 71>  AuxC "aug-cc-PVTZ/C"
| 72>  newGTO H "cc-PVTZ" end
| 73>  newAuxJGTO H "cc-PVTZ/JK" end
| 74>  newAuxCGTO H "cc-PVTZ/C" end
| 75> end
| 76> %cpcm
| 77>  SMD true
| 78>  SMDsolvent "dichloromethane"
| 79> end
| 80> %pal nprocs 4 end
| 81> %tddft
| 82>  nroots 10
| 83>  maxdim 7
| 84> end
| 85> * xyzfile 0 1
| 86>
| 87>                          ****END OF INPUT****
 Total Charge           Charge          ....    0
 Multiplicity           Mult            ....    1
 Number of Electrons    NEL             ....  182
FINAL SINGLE POINT ENERGY     -1090.182468263440
FINAL SINGLE POINT ENERGY     -1090.185848735699
FINAL SINGLE POINT ENERGY     -1090.186381177682
FINAL SINGLE POINT ENERGY     -1090.186504375763
FINAL SINGLE POINT ENERGY     -1090.186539572336
FINAL SINGLE POINT ENERGY     -1090.186547750524
FINAL SINGLE POINT ENERGY     -1090.186545631234
FINAL SINGLE POINT ENERGY     -1090.186542735886
                    ***********************HURRAY********************
FINAL SINGLE POINT ENERGY     -1090.186539912727

CARTESIAN COORDINATES (ANGSTROEM)
---------------------------------
  O      1.410863   -3.226252    0.312531
  N      0.453389   -2.345197    0.193431
  C      0.720499   -1.005630    0.097823
  C      2.115163   -0.605661    0.110575
  C      2.522226    0.672027    0.010042
  C      3.902032    1.149421    0.011759
  C      4.131685    2.532619   -0.049802
  C      5.421846    3.048413   -0.048314
  C      6.514413    2.189936    0.011927
  C      6.304269    0.812075    0.069756
  C      5.017648    0.296649    0.069623
  N     -0.254091   -0.106564   -0.004382
  C     -1.522094   -0.487087   -0.044506
  N     -2.520616    0.450900   -0.135670
  C     -2.497714    1.852009   -0.148672
  C     -3.717820    2.490036   -0.428011
  C     -3.810543    3.872009   -0.441116
  C     -2.689771    4.657290   -0.177163
  C     -1.482196    4.029828    0.102643
  C     -1.373142    2.641908    0.119894
  C     -1.880686   -1.863962   -0.000110
  C     -0.858399   -2.772709    0.155270
  C     -1.068871   -4.247785    0.294000
  C     -2.530534   -4.614633    0.547277
  C     -3.456028   -3.820474   -0.367586
  C     -3.317131   -2.319522   -0.107127
  H      2.817347   -1.419186    0.204568
  H      1.768602    1.446038   -0.080121
  H      3.283618    3.204588   -0.097458
  H      5.573256    4.119176   -0.094874
  H      7.521309    2.586700    0.012162
  H      7.150314    0.138217    0.113597
  H      4.879417   -0.775353    0.111596
  H     -3.448072    0.069722   -0.227751
  H     -4.594261    1.886995   -0.634554
  H     -4.763181    4.337136   -0.660260
  H     -2.760126    5.736746   -0.188869
  H     -0.601610    4.622909    0.315192
  H     -0.429034    2.176541    0.340707
  H     -0.699851   -4.733402   -0.615467
  H     -0.421057   -4.609002    1.093550
  H     -2.663273   -5.686890    0.396206
  H     -2.785752   -4.406067    1.590488
  H     -4.495915   -4.117059   -0.222015
  H     -3.205751   -4.033592   -1.410983
  H     -3.813019   -1.771881   -0.913505
  H     -3.847259   -2.052481    0.814300

 Multiplicity           Mult            ....    1
 Number of Electrons    NEL             ....  182
 Basis Dimension        Dim             .... 1490

ORBITAL ENERGIES
----------------

  NO   OCC          E(Eh)            E(eV)
   0   2.0000     -19.086932      -519.3818
   1   2.0000     -14.438378      -392.8882
   2   2.0000     -14.355216      -390.6253
   3   2.0000     -14.315409      -389.5421
   4   2.0000     -10.261219      -279.2220
   5   2.0000     -10.252897      -278.9955
   6   2.0000     -10.229869      -278.3689
   7   2.0000     -10.224760      -278.2299
   8   2.0000     -10.196248      -277.4540
   9   2.0000     -10.188186      -277.2346
  10   2.0000     -10.184343      -277.1301
  11   2.0000     -10.178148      -276.9615
  12   2.0000     -10.175925      -276.9010
  13   2.0000     -10.175780      -276.8970
  14   2.0000     -10.175494      -276.8893
  15   2.0000     -10.175046      -276.8771
  16   2.0000     -10.174830      -276.8712
  17   2.0000     -10.174744      -276.8689
  18   2.0000     -10.174475      -276.8616
  19   2.0000     -10.173631      -276.8386
  20   2.0000     -10.173443      -276.8335
  21   2.0000     -10.171700      -276.7860
  22   2.0000     -10.168270      -276.6927
  23   2.0000     -10.167456      -276.6705
  24   2.0000     -10.164813      -276.5986
  25   2.0000     -10.163295      -276.5573
  26   2.0000      -1.086363       -29.5614
  27   2.0000      -0.989590       -26.9281
  28   2.0000      -0.935842       -25.4656
  29   2.0000      -0.864702       -23.5297
  30   2.0000      -0.860589       -23.4178
  31   2.0000      -0.852613       -23.2008
  32   2.0000      -0.818153       -22.2631
  33   2.0000      -0.803966       -21.8770
  34   2.0000      -0.775439       -21.1008
  35   2.0000      -0.761608       -20.7244
  36   2.0000      -0.747807       -20.3489
  37   2.0000      -0.747059       -20.3285
  38   2.0000      -0.737758       -20.0754
  39   2.0000      -0.727337       -19.7918
  40   2.0000      -0.670019       -18.2321
  41   2.0000      -0.666230       -18.1290
  42   2.0000      -0.631943       -17.1960
  43   2.0000      -0.622434       -16.9373
  44   2.0000      -0.613143       -16.6845
  45   2.0000      -0.605250       -16.4697
  46   2.0000      -0.592625       -16.1261
  47   2.0000      -0.578327       -15.7371
  48   2.0000      -0.557978       -15.1834
  49   2.0000      -0.550684       -14.9849
  50   2.0000      -0.530666       -14.4402
  51   2.0000      -0.515319       -14.0226
  52   2.0000      -0.507205       -13.8018
  53   2.0000      -0.488043       -13.2803
  54   2.0000      -0.486900       -13.2492
  55   2.0000      -0.476659       -12.9706
  56   2.0000      -0.470035       -12.7903
  57   2.0000      -0.457249       -12.4424
  58   2.0000      -0.453603       -12.3432
  59   2.0000      -0.442248       -12.0342
  60   2.0000      -0.441530       -12.0146
  61   2.0000      -0.437244       -11.8980
  62   2.0000      -0.430834       -11.7236
  63   2.0000      -0.425041       -11.5660
  64   2.0000      -0.419090       -11.4040
  65   2.0000      -0.418377       -11.3846
  66   2.0000      -0.414333       -11.2746
  67   2.0000      -0.413400       -11.2492
  68   2.0000      -0.403218       -10.9721
  69   2.0000      -0.398742       -10.8503
  70   2.0000      -0.384708       -10.4684
  71   2.0000      -0.379461       -10.3256
  72   2.0000      -0.374123       -10.1804
  73   2.0000      -0.371199       -10.1008
  74   2.0000      -0.362276        -9.8580
  75   2.0000      -0.348441        -9.4816
  76   2.0000      -0.343949        -9.3593
  77   2.0000      -0.337404        -9.1812
  78   2.0000      -0.335271        -9.1232
  79   2.0000      -0.330794        -9.0014
  80   2.0000      -0.326104        -8.8737
  81   2.0000      -0.323940        -8.8149
  82   2.0000      -0.306995        -8.3537
  83   2.0000      -0.285633        -7.7725
  84   2.0000      -0.276150        -7.5144
  85   2.0000      -0.259120        -7.0510
  86   2.0000      -0.257860        -7.0167
  87   2.0000      -0.243996        -6.6395
  88   2.0000      -0.241460        -6.5705
  89   2.0000      -0.225632        -6.1398
  90   2.0000      -0.190696        -5.1891
  91   0.0000      -0.073734        -2.0064
  92   0.0000      -0.036724        -0.9993
  93   0.0000      -0.015530        -0.4226
  94   0.0000      -0.014298        -0.3891
  95   0.0000      -0.006677        -0.1817

MULLIKEN ATOMIC CHARGES
-----------------------
   0 O :   -0.996611
   1 N :    0.244604
   2 C :    0.450716
   3 C :    0.373006
   4 C :   -0.682867
   5 C :    1.956836
   6 C :   -0.674283
   7 C :   -0.499228
   8 C :   -0.161851
   9 C :   -0.502720
  10 C :   -0.481554
  11 N :   -0.847453
  12 C :   -0.428310
  13 N :   -0.423909
  14 C :    1.081646
  15 C :   -0.563866
  16 C :   -0.375867
  17 C :   -0.350766
  18 C :   -0.565994
  19 C :    0.034801
  20 C :    1.593008
  21 C :   -0.238756
  22 C :   -0.053262
  23 C :   -0.191110
  24 C :   -0.214297
  25 C :   -0.351305
  26 H :    0.002732
  27 H :    0.073415
  28 H :    0.092454
  29 H :    0.219240
  30 H :    0.208976
  31 H :    0.204168
  32 H :    0.073385
  33 H :    0.007635
  34 H :    0.133491
  35 H :    0.206734
  36 H :    0.206704
  37 H :    0.177783
  38 H :    0.296186
  39 H :    0.114831
  40 H :    0.116802
  41 H :    0.138462
  42 H :    0.119507
  43 H :    0.134970
  44 H :    0.120949
  45 H :    0.112289
  46 H :    0.108679
Sum of atomic charges:   -0.0000000

LOEWDIN ATOMIC CHARGES
----------------------
   0 O :    0.247513
   1 N :   -0.287060
   2 C :   -0.502263
   3 C :   -0.040279
   4 C :   -0.059332
   5 C :   -0.415228
   6 C :   -0.078040
   7 C :   -0.131661
   8 C :   -0.143712
   9 C :   -0.130373
  10 C :   -0.069781
  11 N :    0.351231
  12 C :   -0.485205
  13 N :    0.364964
  14 C :   -0.466161
  15 C :   -0.073186
  16 C :   -0.148714
  17 C :   -0.158396
  18 C :   -0.147722
  19 C :   -0.064179
  20 C :   -0.233058
  21 C :   -0.344130
  22 C :   -0.159907
  23 C :   -0.258559
  24 C :   -0.261229
  25 C :   -0.162554
  26 H :    0.205832
  27 H :    0.215917
  28 H :    0.189032
  29 H :    0.169175
  30 H :    0.167799
  31 H :    0.169738
  32 H :    0.191622
  33 H :    0.181684
  34 H :    0.185468
  35 H :    0.170004
  36 H :    0.164526
  37 H :    0.170422
  38 H :    0.188001
  39 H :    0.203324
  40 H :    0.196199
  41 H :    0.162839
  42 H :    0.185080
  43 H :    0.162266
  44 H :    0.185682
  45 H :    0.192977
  46 H :    0.199431

  Mayer bond orders larger than 0.100000
B(  0-O ,  1-N ) :   0.4181 B(  0-O ,  2-C ) :   0.3044 B(  0-O ,  3-C ) :  -0.1703
B(  0-O , 21-C ) :   0.2036 B(  0-O , 22-C ) :  -0.1006 B(  1-N ,  2-C ) :   1.1820
B(  1-N ,  4-C ) :   0.1177 B(  1-N , 11-N ) :  -0.2012 B(  1-N , 12-C ) :   0.1842
B(  1-N , 20-C ) :  -0.1008 B(  1-N , 21-C ) :   0.7682 B(  2-C ,  3-C ) :  -0.9885
B(  2-C ,  4-C ) :   0.1719 B(  2-C ,  5-C ) :   0.1229 B(  2-C ,  6-C ) :  -0.1024
B(  2-C , 10-C ) :   0.2659 B(  2-C , 11-N ) :   1.2108 B(  2-C , 12-C ) :  -0.5959
B(  2-C , 20-C ) :   0.2295 B(  2-C , 21-C ) :  -0.2955 B(  2-C , 26-H ) :  -0.2561
B(  3-C ,  4-C ) :   0.9436 B(  3-C ,  6-C ) :   0.1991 B(  3-C ,  9-C ) :  -0.1442
B(  3-C , 10-C ) :  -0.1107 B(  3-C , 12-C ) :   0.1791 B(  3-C , 21-C ) :   0.2063
B(  3-C , 26-H ) :   1.3632 B(  4-C ,  5-C ) :  -0.2601 B(  4-C ,  6-C ) :   0.3187
B(  4-C ,  8-C ) :   0.1240 B(  4-C , 10-C ) :   0.1787 B(  4-C , 26-H ) :  -0.1055
B(  4-C , 27-H ) :   1.3310 B(  5-C ,  6-C ) :   0.3074 B(  5-C ,  7-C ) :  -0.1530
B(  5-C ,  8-C ) :  -0.1013 B(  5-C ,  9-C ) :  -0.2193 B(  5-C , 10-C ) :   0.6274
B(  5-C , 27-H ) :  -0.2435 B(  5-C , 28-H ) :  -0.1655 B(  6-C ,  7-C ) :   1.3197
B(  6-C ,  9-C ) :   0.1017 B(  6-C , 28-H ) :   1.1596 B(  7-C ,  8-C ) :   1.1804
B(  7-C ,  9-C ) :   0.1189 B(  7-C , 29-H ) :   0.9403 B(  8-C ,  9-C ) :   1.1677
B(  8-C , 30-H ) :   0.9418 B(  9-C , 10-C ) :   1.3012 B(  9-C , 31-H ) :   0.9525
B( 10-C , 32-H ) :   1.1400 B( 11-N , 13-N ) :  -0.2435 B( 11-N , 14-C ) :   0.1751
B( 11-N , 19-C ) :  -0.1049 B( 11-N , 21-C ) :   0.1123 B( 12-C , 13-N ) :   0.7421
B( 12-C , 17-C ) :   0.1250 B( 12-C , 19-C ) :   0.1246 B( 12-C , 20-C ) :  -1.4976
B( 12-C , 21-C ) :   0.9861 B( 13-N , 14-C ) :   0.5085 B( 13-N , 15-C ) :   0.2049
B( 13-N , 19-C ) :  -0.3340 B( 13-N , 20-C ) :  -0.1339 B( 13-N , 21-C ) :   0.1673
B( 13-N , 33-H ) :   1.2274 B( 14-C , 15-C ) :   0.6997 B( 14-C , 17-C ) :  -0.1011
B( 14-C , 18-C ) :  -0.2049 B( 14-C , 19-C ) :   0.9657 B( 14-C , 20-C ) :   0.1719
B( 14-C , 21-C ) :  -0.1328 B( 15-C , 16-C ) :   1.1566 B( 15-C , 34-H ) :   1.0485
B( 16-C , 17-C ) :   1.1635 B( 16-C , 35-H ) :   0.9666 B( 17-C , 18-C ) :   1.2939
B( 17-C , 36-H ) :   0.9487 B( 18-C , 19-C ) :   0.9863 B( 18-C , 37-H ) :   1.0095
B( 19-C , 38-H ) :   0.9088 B( 20-C , 21-C ) :   0.4641 B( 20-C , 25-C ) :   0.9196
B( 21-C , 22-C ) :   0.6850 B( 21-C , 25-C ) :  -0.1086 B( 22-C , 23-C ) :   0.8410
B( 22-C , 39-H ) :   1.0133 B( 22-C , 40-H ) :   0.9875 B( 23-C , 24-C ) :   0.8780
B( 23-C , 41-H ) :   1.0161 B( 23-C , 42-H ) :   1.0177 B( 24-C , 25-C ) :   0.8483
B( 24-C , 43-H ) :   1.0183 B( 24-C , 44-H ) :   1.0192 B( 25-C , 45-H ) :   1.0077
B( 25-C , 46-H ) :   1.0398

-----------------------------------------------------------------------------
         ABSORPTION SPECTRUM VIA TRANSITION ELECTRIC DIPOLE MOMENTS
-----------------------------------------------------------------------------
State   Energy    Wavelength  fosc         T2        TX        TY        TZ
        (cm-1)      (nm)                 (au**2)    (au)      (au)      (au)
-----------------------------------------------------------------------------
   1   22507.3    444.3   0.299834262   4.38565  -1.68943  -1.23670   0.04503
   2   29026.2    344.5   0.011524423   0.13071  -0.35820   0.01965   0.04487
   3   29615.2    337.7   0.470402922   5.22916  -2.28486   0.08232  -0.04244
   4   31670.1    315.8   0.741928256   7.71237   1.04598   2.56846  -0.14599
   5   33315.7    300.2   0.431639255   4.26528  -2.00743   0.47357  -0.10598
   6   34252.6    291.9   0.059105663   0.56808   0.25214  -0.70925   0.03831
   7   34367.9    291.0   0.074256776   0.71131   0.36239  -0.75947  -0.05646
   8   35794.9    279.4   0.232247196   2.13602   0.53289  -1.36088   0.00657
   9   36326.2    275.3   0.003791885   0.03436  -0.00588  -0.16913   0.07566
  10   36387.7    274.8   0.051490918   0.46586  -0.01043   0.66820  -0.13877

FINAL SINGLE POINT ENERGY     -1090.083989009381

DIPOLE MOMENT
-------------
                                X             Y             Z
Electronic contribution:      6.17028       4.68887       0.08177
Nuclear contribution   :     -8.74008      -4.24075      -0.31427
                        -----------------------------------------
Total Dipole Moment    :     -2.56980       0.44812      -0.23251
                        -----------------------------------------
Magnitude (a.u.)       :      2.61892
Magnitude (Debye)      :      6.65676

Rotational constants in cm-1:     0.007311     0.004413     0.002767
Rotational constants in MHz :   219.178800   132.311442    82.965179

                             ****ORCA TERMINATED NORMALLY****
TOTAL RUN TIME: 0 days 9 hours 14 minutes 14 seconds 836 msec
