                         Program Version 5.0.2 -  RELEASE  -
|  1> ! m062x defgrid3 aug-cc-PVTZ RIJCOSX Opt
|  2> %maxcore 4000
|  3> %basis
|  4>  AuxJ "aug-cc-PVTZ/JK"
|  5>  AuxC "aug-cc-PVTZ/C"
|  6>  newGTO H "cc-PVTZ" end
|  7>  newAuxJGTO H "cc-PVTZ/JK" end
|  8>  newAuxCGTO H "cc-PVTZ/C" end
|  9> end
| 10> %cpcm
| 11>  SMD true
| 12>  SMDsolvent "dichloromethane"
| 13> end
| 14> %pal nprocs 4 end
| 15> * xyz 0 1
| 16> O          1.37360       -3.19720        0.27300
| 17> N          0.43480       -2.34810        0.16420
| 18> C          0.68430       -1.00440        0.07990
| 19> C          2.06010       -0.58820        0.10840
| 20> C          2.45480        0.68660       -0.04490
| 21> C          3.81500        1.17730       -0.01470
| 22> C          4.03890        2.54900       -0.17530
| 23> C          5.31730        3.06950       -0.14920
| 24> C          6.40480        2.23130        0.03690
| 25> C          6.20080        0.86930        0.19610
| 26> C          4.92380        0.34560        0.17150
| 27> N         -0.28860       -0.11830       -0.00780
| 28> C         -1.55630       -0.49690       -0.04370
| 29> N         -2.54310        0.44490       -0.11120
| 30> C         -2.47310        1.83250       -0.12240
| 31> C         -3.65380        2.53130       -0.38160
| 32> C         -3.66330        3.91180       -0.39780
| 33> C         -2.49840        4.62010       -0.15350
| 34> C         -1.32800        3.93050        0.11450
| 35> C         -1.30690        2.54860        0.13460
| 36> C         -1.89660       -1.87410       -0.01220
| 37> C         -0.86350       -2.77240        0.12310
| 38> C         -1.05330       -4.24890        0.24110
| 39> C         -2.49650       -4.60850        0.56160
| 40> C         -3.42190       -3.84490       -0.37670
| 41> C         -3.32360       -2.34580       -0.10360
| 42> H          2.75490       -1.40150        0.25770
| 43> H          1.69090        1.43460       -0.21110
| 44> H          3.19350        3.20660       -0.32130
| 45> H          5.46950        4.13190       -0.27410
| 46> H          7.40580        2.63640        0.05730
| 47> H          7.04650        0.21260        0.34060
| 48> H          4.78350       -0.71650        0.29630
| 49> H         -3.47930        0.08000       -0.20720
| 50> H         -4.56780        1.98400       -0.57170
| 51> H         -4.58500        4.43650       -0.60230
| 52> H         -2.50570        5.69930       -0.16860
| 53> H         -0.41720        4.47550        0.31530
| 54> H         -0.40160        2.00990        0.35070
| 55> H         -0.73870       -4.71330       -0.69920
| 56> H         -0.36190       -4.61450        1.00560
| 57> H         -2.64230       -5.68350        0.45150
| 58> H         -2.72490       -4.34050        1.59530
| 59> H         -4.45570       -4.16960       -0.24700
| 60> H         -3.13190       -4.04740       -1.40980
| 61> H         -3.83910       -1.80770       -0.90550
| 62> H         -3.83470       -2.11390        0.83780
| 63> *
| 64>
| 65>
| 66> $new_job
| 67> ! m062x defgrid3 aug-cc-PVTZ RIJCOSX SP
| 68> %maxcore 4000
| 69> %basis
| 70>  AuxJ "aug-cc-PVTZ/JK"
| 71>  AuxC "aug-cc-PVTZ/C"
| 72>  newGTO H "cc-PVTZ" end
| 73>  newAuxJGTO H "cc-PVTZ/JK" end
| 74>  newAuxCGTO H "cc-PVTZ/C" end
| 75> end
| 76> %cpcm
| 77>  SMD true
| 78>  SMDsolvent "dichloromethane"
| 79> end
| 80> %pal nprocs 4 end
| 81> %tddft
| 82>  nroots 10
| 83>  maxdim 7
| 84> end
| 85> * xyzfile 0 1
| 86>
| 87>                          ****END OF INPUT****
 Total Charge           Charge          ....    0
 Multiplicity           Mult            ....    1
 Number of Electrons    NEL             ....  182
FINAL SINGLE POINT ENERGY     -1090.408305429466
FINAL SINGLE POINT ENERGY     -1090.410528456805
FINAL SINGLE POINT ENERGY     -1090.411147194415
FINAL SINGLE POINT ENERGY     -1090.411270033192
FINAL SINGLE POINT ENERGY     -1090.411308043924
FINAL SINGLE POINT ENERGY     -1090.411329854818
FINAL SINGLE POINT ENERGY     -1090.411347507307
FINAL SINGLE POINT ENERGY     -1090.411359440157
FINAL SINGLE POINT ENERGY     -1090.411365748963
FINAL SINGLE POINT ENERGY     -1090.411367532329
                    ***********************HURRAY********************
FINAL SINGLE POINT ENERGY     -1090.411370421661

CARTESIAN COORDINATES (ANGSTROEM)
---------------------------------
  O      1.398765   -3.245590    0.177744
  N      0.440170   -2.363801    0.114289
  C      0.702232   -1.037099    0.049344
  C      2.101060   -0.627506    0.064543
  C      2.465255    0.654630   -0.036747
  C      3.836631    1.166925   -0.017992
  C      4.035724    2.540841   -0.177500
  C      5.313273    3.083074   -0.167915
  C      6.415197    2.256852    0.003499
  C      6.230899    0.886037    0.164626
  C      4.956765    0.345140    0.154050
  N     -0.264422   -0.131351   -0.018031
  C     -1.528843   -0.509705   -0.038459
  N     -2.519256    0.431399   -0.097618
  C     -2.447244    1.830838   -0.108158
  C     -3.599097    2.508198   -0.525306
  C     -3.642206    3.890489   -0.536092
  C     -2.535965    4.631456   -0.133888
  C     -1.396507    3.961814    0.286102
  C     -1.339625    2.573064    0.306645
  C     -1.889283   -1.881098   -0.003043
  C     -0.865948   -2.788324    0.109922
  C     -1.074396   -4.260293    0.252144
  C     -2.523600   -4.600586    0.573579
  C     -3.464154   -3.823129   -0.334390
  C     -3.326118   -2.325075   -0.085319
  H      2.818398   -1.427215    0.162774
  H      1.689285    1.405313   -0.146071
  H      3.174757    3.184656   -0.311121
  H      5.446955    4.149378   -0.293508
  H      7.413115    2.674721    0.012881
  H      7.086846    0.238173    0.300425
  H      4.832294   -0.721965    0.282934
  H     -3.453288    0.070676   -0.214215
  H     -4.461270    1.933374   -0.842026
  H     -4.544214    4.390527   -0.863624
  H     -2.565749    5.712319   -0.145634
  H     -0.529309    4.521990    0.611501
  H     -0.448308    2.075468    0.647550
  H     -0.755703   -4.742522   -0.676622
  H     -0.391292   -4.620614    1.020619
  H     -2.675242   -5.673734    0.464215
  H     -2.735945   -4.346640    1.615471
  H     -4.499539   -4.122204   -0.175279
  H     -3.218090   -4.041535   -1.376846
  H     -3.824043   -1.779391   -0.890692
  H     -3.838866   -2.048474    0.841835

 Multiplicity           Mult            ....    1
 Number of Electrons    NEL             ....  182
 Basis Dimension        Dim             .... 1490

ORBITAL ENERGIES
----------------

  NO   OCC          E(Eh)            E(eV)
   0   2.0000     -19.580266      -532.8061
   1   2.0000     -14.876256      -404.8035
   2   2.0000     -14.787152      -402.3789
   3   2.0000     -14.752780      -401.4436
   4   2.0000     -10.635193      -289.3983
   5   2.0000     -10.626854      -289.1714
   6   2.0000     -10.601831      -288.4905
   7   2.0000     -10.594465      -288.2901
   8   2.0000     -10.564436      -287.4729
   9   2.0000     -10.555681      -287.2347
  10   2.0000     -10.554349      -287.1984
  11   2.0000     -10.545170      -286.9487
  12   2.0000     -10.544730      -286.9367
  13   2.0000     -10.544409      -286.9280
  14   2.0000     -10.544227      -286.9230
  15   2.0000     -10.543843      -286.9126
  16   2.0000     -10.543786      -286.9110
  17   2.0000     -10.542699      -286.8814
  18   2.0000     -10.542504      -286.8761
  19   2.0000     -10.542354      -286.8720
  20   2.0000     -10.542344      -286.8718
  21   2.0000     -10.538538      -286.7682
  22   2.0000     -10.538277      -286.7611
  23   2.0000     -10.536291      -286.7070
  24   2.0000     -10.531125      -286.5665
  25   2.0000     -10.529575      -286.5243
  26   2.0000      -1.213311       -33.0159
  27   2.0000      -1.109246       -30.1841
  28   2.0000      -1.049654       -28.5625
  29   2.0000      -0.975272       -26.5385
  30   2.0000      -0.970498       -26.4086
  31   2.0000      -0.961897       -26.1745
  32   2.0000      -0.925011       -25.1708
  33   2.0000      -0.909637       -24.7525
  34   2.0000      -0.877457       -23.8768
  35   2.0000      -0.862770       -23.4772
  36   2.0000      -0.847820       -23.0703
  37   2.0000      -0.847544       -23.0628
  38   2.0000      -0.836354       -22.7583
  39   2.0000      -0.825821       -22.4717
  40   2.0000      -0.761297       -20.7160
  41   2.0000      -0.757650       -20.6167
  42   2.0000      -0.720095       -19.5948
  43   2.0000      -0.709358       -19.3026
  44   2.0000      -0.699376       -19.0310
  45   2.0000      -0.691301       -18.8112
  46   2.0000      -0.677554       -18.4372
  47   2.0000      -0.662171       -18.0186
  48   2.0000      -0.639009       -17.3883
  49   2.0000      -0.632899       -17.2221
  50   2.0000      -0.609604       -16.5882
  51   2.0000      -0.594001       -16.1636
  52   2.0000      -0.583994       -15.8913
  53   2.0000      -0.572686       -15.5836
  54   2.0000      -0.564453       -15.3595
  55   2.0000      -0.550515       -14.9803
  56   2.0000      -0.545738       -14.8503
  57   2.0000      -0.532207       -14.4821
  58   2.0000      -0.525922       -14.3111
  59   2.0000      -0.518343       -14.1048
  60   2.0000      -0.512423       -13.9437
  61   2.0000      -0.508027       -13.8241
  62   2.0000      -0.500755       -13.6262
  63   2.0000      -0.494109       -13.4454
  64   2.0000      -0.489052       -13.3078
  65   2.0000      -0.486869       -13.2484
  66   2.0000      -0.484928       -13.1955
  67   2.0000      -0.480204       -13.0670
  68   2.0000      -0.471133       -12.8202
  69   2.0000      -0.464034       -12.6270
  70   2.0000      -0.457828       -12.4581
  71   2.0000      -0.449491       -12.2313
  72   2.0000      -0.445057       -12.1106
  73   2.0000      -0.439173       -11.9505
  74   2.0000      -0.424625       -11.5546
  75   2.0000      -0.407910       -11.0998
  76   2.0000      -0.405525       -11.0349
  77   2.0000      -0.398289       -10.8380
  78   2.0000      -0.397200       -10.8084
  79   2.0000      -0.395310       -10.7569
  80   2.0000      -0.389081       -10.5874
  81   2.0000      -0.383239       -10.4285
  82   2.0000      -0.371051       -10.0968
  83   2.0000      -0.356497        -9.7008
  84   2.0000      -0.333472        -9.0742
  85   2.0000      -0.317324        -8.6348
  86   2.0000      -0.314184        -8.5494
  87   2.0000      -0.312520        -8.5041
  88   2.0000      -0.302669        -8.2360
  89   2.0000      -0.278649        -7.5824
  90   2.0000      -0.242409        -6.5963
  91   0.0000      -0.046158        -1.2560
  92   0.0000      -0.007843        -0.2134
  93   0.0000       0.001556         0.0423
  94   0.0000       0.005730         0.1559
  95   0.0000       0.008823         0.2401

MULLIKEN ATOMIC CHARGES
-----------------------
   0 O :   -0.872579
   1 N :   -0.085954
   2 C :    1.111931
   3 C :    0.109762
   4 C :   -0.917720
   5 C :    2.571943
   6 C :   -0.581957
   7 C :   -0.572975
   8 C :   -0.099965
   9 C :   -0.624671
  10 C :   -0.277750
  11 N :   -0.776565
  12 C :   -0.878589
  13 N :   -0.620893
  14 C :    1.262618
  15 C :   -0.387118
  16 C :   -0.411099
  17 C :   -0.318290
  18 C :   -0.604427
  19 C :    0.081281
  20 C :    2.198814
  21 C :    0.134392
  22 C :   -0.471792
  23 C :   -0.327630
  24 C :   -0.341060
  25 C :   -0.761836
  26 H :   -0.059581
  27 H :    0.004480
  28 H :   -0.015435
  29 H :    0.133559
  30 H :    0.125899
  31 H :    0.123302
  32 H :   -0.022968
  33 H :    0.142223
  34 H :    0.077698
  35 H :    0.133929
  36 H :    0.115272
  37 H :    0.087409
  38 H :    0.234619
  39 H :    0.182770
  40 H :    0.167767
  41 H :    0.179092
  42 H :    0.165060
  43 H :    0.170113
  44 H :    0.170865
  45 H :    0.163577
  46 H :    0.182481
Sum of atomic charges:   -0.0000000

LOEWDIN ATOMIC CHARGES
----------------------
   0 O :    0.242623
   1 N :   -0.304441
   2 C :   -0.509651
   3 C :   -0.034526
   4 C :   -0.062737
   5 C :   -0.423451
   6 C :   -0.078210
   7 C :   -0.131035
   8 C :   -0.144431
   9 C :   -0.129206
  10 C :   -0.071445
  11 N :    0.355964
  12 C :   -0.497548
  13 N :    0.362329
  14 C :   -0.477931
  15 C :   -0.069925
  16 C :   -0.146641
  17 C :   -0.156962
  18 C :   -0.145956
  19 C :   -0.065608
  20 C :   -0.237685
  21 C :   -0.350871
  22 C :   -0.157513
  23 C :   -0.259345
  24 C :   -0.261699
  25 C :   -0.163386
  26 H :    0.208986
  27 H :    0.221891
  28 H :    0.191686
  29 H :    0.170497
  30 H :    0.169508
  31 H :    0.171050
  32 H :    0.194890
  33 H :    0.185831
  34 H :    0.188354
  35 H :    0.171702
  36 H :    0.166408
  37 H :    0.172501
  38 H :    0.194496
  39 H :    0.206806
  40 H :    0.199282
  41 H :    0.163875
  42 H :    0.189812
  43 H :    0.163289
  44 H :    0.190080
  45 H :    0.195732
  46 H :    0.202615

  Mayer bond orders larger than 0.100000
B(  0-O ,  1-N ) :   0.8474 B(  0-O , 21-C ) :   0.1043 B(  1-N ,  2-C ) :   1.0141
B(  1-N ,  4-C ) :   0.1669 B(  1-N , 12-C ) :   0.1582 B(  1-N , 20-C ) :  -0.1838
B(  1-N , 21-C ) :   0.9006 B(  1-N , 26-H ) :   0.1092 B(  2-C ,  3-C ) :  -0.7029
B(  2-C ,  4-C ) :  -0.1826 B(  2-C ,  5-C ) :   0.2015 B(  2-C ,  6-C ) :  -0.1270
B(  2-C ,  7-C ) :   0.1034 B(  2-C , 10-C ) :   0.1615 B(  2-C , 11-N ) :   0.9417
B(  2-C , 12-C ) :  -0.7840 B(  2-C , 20-C ) :   0.1113 B(  2-C , 21-C ) :  -0.3135
B(  2-C , 26-H ) :  -0.4186 B(  2-C , 27-H ) :  -0.2462 B(  3-C ,  4-C ) :   1.1564
B(  3-C ,  5-C ) :  -0.2665 B(  3-C ,  6-C ) :   0.2111 B(  3-C ,  7-C ) :  -0.1398
B(  3-C ,  9-C ) :  -0.1666 B(  3-C , 11-N ) :  -0.2074 B(  3-C , 20-C ) :   0.1599
B(  3-C , 26-H ) :   1.4186 B(  4-C ,  5-C ) :  -0.2640 B(  4-C ,  6-C ) :   0.3582
B(  4-C ,  7-C ) :   0.1433 B(  4-C ,  9-C ) :   0.2642 B(  4-C , 11-N ) :   0.1731
B(  4-C , 26-H ) :  -0.1778 B(  4-C , 27-H ) :   1.3678 B(  4-C , 28-H ) :   0.1351
B(  5-C ,  7-C ) :  -0.3379 B(  5-C ,  9-C ) :  -0.4853 B(  5-C , 10-C ) :   0.4175
B(  5-C , 27-H ) :  -0.2986 B(  5-C , 28-H ) :  -0.4165 B(  5-C , 32-H ) :  -0.3132
B(  6-C ,  7-C ) :   1.1620 B(  6-C , 28-H ) :   1.3974 B(  6-C , 29-H ) :  -0.1182
B(  7-C ,  8-C ) :   1.1057 B(  7-C ,  9-C ) :   0.1415 B(  7-C , 28-H ) :  -0.1267
B(  7-C , 29-H ) :   1.1138 B(  8-C ,  9-C ) :   1.1215 B(  8-C , 10-C ) :  -0.1268
B(  8-C , 30-H ) :   1.0761 B(  8-C , 31-H ) :  -0.1001 B(  9-C , 10-C ) :   1.0465
B(  9-C , 31-H ) :   1.1100 B(  9-C , 32-H ) :  -0.1012 B( 10-C , 31-H ) :  -0.1037
B( 10-C , 32-H ) :   1.3844 B( 11-N , 12-C ) :   0.7814 B( 11-N , 13-N ) :  -0.3454
B( 11-N , 19-C ) :  -0.1004 B( 11-N , 20-C ) :  -0.3911 B( 11-N , 21-C ) :   0.2388
B( 11-N , 27-H ) :   0.1050 B( 12-C , 13-N ) :   0.6875 B( 12-C , 17-C ) :   0.1116
B( 12-C , 19-C ) :   0.4600 B( 12-C , 20-C ) :  -1.1391 B( 12-C , 21-C ) :   1.1503
B( 13-N , 14-C ) :   0.8267 B( 13-N , 19-C ) :  -0.4699 B( 13-N , 20-C ) :  -0.1812
B( 13-N , 21-C ) :   0.1788 B( 13-N , 25-C ) :   0.1696 B( 13-N , 33-H ) :   1.1746
B( 14-C , 15-C ) :   0.5970 B( 14-C , 16-C ) :  -0.1352 B( 14-C , 17-C ) :  -0.1432
B( 14-C , 18-C ) :  -0.2942 B( 14-C , 19-C ) :   0.9754 B( 14-C , 21-C ) :  -0.1147
B( 14-C , 34-H ) :  -0.1639 B( 15-C , 16-C ) :   0.9282 B( 15-C , 34-H ) :   1.2148
B( 15-C , 35-H ) :  -0.1378 B( 16-C , 17-C ) :   1.1287 B( 16-C , 19-C ) :  -0.1354
B( 16-C , 34-H ) :  -0.1261 B( 16-C , 35-H ) :   1.1142 B( 17-C , 18-C ) :   1.1530
B( 17-C , 19-C ) :  -0.1417 B( 17-C , 36-H ) :   1.1066 B( 18-C , 19-C ) :   0.6776
B( 18-C , 36-H ) :  -0.1102 B( 18-C , 37-H ) :   1.1942 B( 18-C , 38-H ) :  -0.1521
B( 19-C , 20-C ) :  -0.1382 B( 19-C , 37-H ) :  -0.1551 B( 19-C , 38-H ) :   1.1190
B( 20-C , 25-C ) :   0.4509 B( 20-C , 46-H ) :  -0.1756 B( 21-C , 22-C ) :   0.5106
B( 21-C , 39-H ) :  -0.1734 B( 22-C , 23-C ) :   0.7654 B( 22-C , 39-H ) :   1.0883
B( 22-C , 40-H ) :   1.0205 B( 23-C , 24-C ) :   0.7684 B( 23-C , 25-C ) :   0.1155
B( 23-C , 41-H ) :   1.0111 B( 23-C , 42-H ) :   1.0276 B( 24-C , 25-C ) :   0.7679
B( 24-C , 43-H ) :   1.0100 B( 24-C , 44-H ) :   1.0350 B( 25-C , 45-H ) :   1.0278
B( 25-C , 46-H ) :   1.1028

-----------------------------------------------------------------------------
         ABSORPTION SPECTRUM VIA TRANSITION ELECTRIC DIPOLE MOMENTS
-----------------------------------------------------------------------------
State   Energy    Wavelength  fosc         T2        TX        TY        TZ
        (cm-1)      (nm)                 (au**2)    (au)      (au)      (au)
-----------------------------------------------------------------------------
   1   27827.7    359.4   0.489213059   5.78757   1.92771   1.43874  -0.03919
   2   34959.4    286.0   0.778641209   7.33244   1.84782  -1.97816   0.06998
   3   35327.6    283.1   0.721188683   6.72063   1.79500   1.86907  -0.07209
   4   36465.6    274.2   0.040360280   0.36437  -0.59602   0.06574  -0.06936
   5   39323.2    254.3   0.035512146   0.29731   0.41055   0.14713   0.32727
   6   39933.5    250.4   0.002004618   0.01653  -0.12848   0.00341  -0.00280
   7   40176.6    248.9   0.075742962   0.62065   0.74152  -0.26541   0.01890
   8   41288.4    242.2   0.149818577   1.19457  -0.71542   0.82255  -0.07856
   9   42110.6    237.5   0.017493450   0.13676   0.34491  -0.12201  -0.05392
  10   42412.7    235.8   0.014871757   0.11544  -0.21559  -0.01357   0.26224

FINAL SINGLE POINT ENERGY     -1090.284578121846

DIPOLE MOMENT
-------------
                                X             Y             Z
Electronic contribution:      5.97792       4.67652      -0.13921
Nuclear contribution   :     -8.64855      -4.05316       0.00022
                        -----------------------------------------
Total Dipole Moment    :     -2.67063       0.62336      -0.13900
                        -----------------------------------------
Magnitude (a.u.)       :      2.74593
Magnitude (Debye)      :      6.97961

Rotational constants in cm-1:     0.007434     0.004492     0.002822
Rotational constants in MHz :   222.868399   134.677877    84.593197

                             ****ORCA TERMINATED NORMALLY****
TOTAL RUN TIME: 0 days 18 hours 15 minutes 11 seconds 101 msec
