                         Program Version 5.0.2 -  RELEASE  -
|  1> ! pbe0 d3bj aug-cc-PVTZ RIJCOSX Opt
|  2> %maxcore 4000
|  3> %basis
|  4>  AuxJ "aug-cc-PVTZ/JK"
|  5>  AuxC "aug-cc-PVTZ/C"
|  6>  newGTO H "cc-PVTZ" end
|  7>  newAuxJGTO H "cc-PVTZ/JK" end
|  8>  newAuxCGTO H "cc-PVTZ/C" end
|  9> end
| 10> %cpcm
| 11>  SMD true
| 12>  SMDsolvent "dichloromethane"
| 13> end
| 14> %pal nprocs 4 end
| 15> * xyz 0 1
| 16> O          1.37360       -3.19720        0.27300
| 17> N          0.43480       -2.34810        0.16420
| 18> C          0.68430       -1.00440        0.07990
| 19> C          2.06010       -0.58820        0.10840
| 20> C          2.45480        0.68660       -0.04490
| 21> C          3.81500        1.17730       -0.01470
| 22> C          4.03890        2.54900       -0.17530
| 23> C          5.31730        3.06950       -0.14920
| 24> C          6.40480        2.23130        0.03690
| 25> C          6.20080        0.86930        0.19610
| 26> C          4.92380        0.34560        0.17150
| 27> N         -0.28860       -0.11830       -0.00780
| 28> C         -1.55630       -0.49690       -0.04370
| 29> N         -2.54310        0.44490       -0.11120
| 30> C         -2.47310        1.83250       -0.12240
| 31> C         -3.65380        2.53130       -0.38160
| 32> C         -3.66330        3.91180       -0.39780
| 33> C         -2.49840        4.62010       -0.15350
| 34> C         -1.32800        3.93050        0.11450
| 35> C         -1.30690        2.54860        0.13460
| 36> C         -1.89660       -1.87410       -0.01220
| 37> C         -0.86350       -2.77240        0.12310
| 38> C         -1.05330       -4.24890        0.24110
| 39> C         -2.49650       -4.60850        0.56160
| 40> C         -3.42190       -3.84490       -0.37670
| 41> C         -3.32360       -2.34580       -0.10360
| 42> H          2.75490       -1.40150        0.25770
| 43> H          1.69090        1.43460       -0.21110
| 44> H          3.19350        3.20660       -0.32130
| 45> H          5.46950        4.13190       -0.27410
| 46> H          7.40580        2.63640        0.05730
| 47> H          7.04650        0.21260        0.34060
| 48> H          4.78350       -0.71650        0.29630
| 49> H         -3.47930        0.08000       -0.20720
| 50> H         -4.56780        1.98400       -0.57170
| 51> H         -4.58500        4.43650       -0.60230
| 52> H         -2.50570        5.69930       -0.16860
| 53> H         -0.41720        4.47550        0.31530
| 54> H         -0.40160        2.00990        0.35070
| 55> H         -0.73870       -4.71330       -0.69920
| 56> H         -0.36190       -4.61450        1.00560
| 57> H         -2.64230       -5.68350        0.45150
| 58> H         -2.72490       -4.34050        1.59530
| 59> H         -4.45570       -4.16960       -0.24700
| 60> H         -3.13190       -4.04740       -1.40980
| 61> H         -3.83910       -1.80770       -0.90550
| 62> H         -3.83470       -2.11390        0.83780
| 63> *
| 64>
| 65>
| 66> $new_job
| 67> ! b2gp-plyp aug-cc-PVTZ RIJCOSX SP
| 68> %maxcore 4000
| 69> %basis
| 70>  AuxJ "aug-cc-PVTZ/JK"
| 71>  AuxC "aug-cc-PVTZ/C"
| 72>  newGTO H "cc-PVTZ" end
| 73>  newAuxJGTO H "cc-PVTZ/JK" end
| 74>  newAuxCGTO H "cc-PVTZ/C" end
| 75> end
| 76> %cpcm
| 77>  SMD true
| 78>  SMDsolvent "dichloromethane"
| 79> end
| 80> %pal nprocs 4 end
| 81> %tddft
| 82>  nroots 10
| 83>  maxdim 7
| 84> end
| 85> * xyzfile 0 1
| 86>
| 87>                          ****END OF INPUT****
 Total Charge           Charge          ....    0
 Multiplicity           Mult            ....    1
 Number of Electrons    NEL             ....  182
Dispersion correction           -0.055380459
FINAL SINGLE POINT ENERGY     -1089.625062734810
Dispersion correction            ... done
Dispersion correction           -0.055117897
FINAL SINGLE POINT ENERGY     -1089.626489837963
Dispersion correction            ... done
Dispersion correction           -0.055185606
FINAL SINGLE POINT ENERGY     -1089.626821282995
Dispersion correction            ... done
FINAL SINGLE POINT ENERGY     -1089.626899116437
FINAL SINGLE POINT ENERGY     -1089.626915704046
FINAL SINGLE POINT ENERGY     -1089.626902883632
FINAL SINGLE POINT ENERGY     -1089.626897672031
FINAL SINGLE POINT ENERGY     -1089.626903203197
Dispersion correction            ... done
Dispersion correction           -0.055183730
FINAL SINGLE POINT ENERGY     -1089.626902866012
Dispersion correction            ... done
                    ***********************HURRAY********************
Dispersion correction           -0.055184592
FINAL SINGLE POINT ENERGY     -1089.626902958946

CARTESIAN COORDINATES (ANGSTROEM)
---------------------------------
  O      1.390996   -3.223131    0.319967
  N      0.447304   -2.350985    0.198469
  C      0.711863   -1.018908    0.100466
  C      2.101331   -0.620702    0.110114
  C      2.487294    0.660071    0.012009
  C      3.855435    1.151730    0.010045
  C      4.065469    2.533912   -0.025150
  C      5.346548    3.062792   -0.023592
  C      6.445641    2.216635    0.009475
  C      6.252410    0.838834    0.039735
  C      4.974784    0.310588    0.039667
  N     -0.253665   -0.117469   -0.000646
  C     -1.517352   -0.494012   -0.038543
  N     -2.508725    0.439776   -0.128007
  C     -2.465399    1.830436   -0.144517
  C     -3.669338    2.484312   -0.433703
  C     -3.738060    3.864096   -0.454311
  C     -2.608612    4.629688   -0.187644
  C     -1.417015    3.984369    0.103845
  C     -1.331859    2.598928    0.128933
  C     -1.878009   -1.863405    0.003950
  C     -0.859658   -2.770998    0.159201
  C     -1.071921   -4.235441    0.300591
  C     -2.527315   -4.587308    0.554586
  C     -3.437010   -3.803018   -0.371269
  C     -3.305399   -2.311215   -0.109868
  H      2.810641   -1.431226    0.199804
  H      1.719286    1.423272   -0.070810
  H      3.205740    3.194601   -0.051803
  H      5.486724    4.136998   -0.049165
  H      7.449300    2.624868    0.009364
  H      7.107418    0.173356    0.061446
  H      4.844832   -0.764710    0.058498
  H     -3.438029    0.063736   -0.220347
  H     -4.554010    1.891997   -0.643529
  H     -4.682264    4.344643   -0.682605
  H     -2.660340    5.711296   -0.205544
  H     -0.526650    4.563584    0.320592
  H     -0.397987    2.114226    0.359979
  H     -0.703763   -4.723337   -0.609266
  H     -0.419736   -4.593361    1.099968
  H     -2.668113   -5.661444    0.421190
  H     -2.783894   -4.357452    1.593958
  H     -4.478777   -4.103361   -0.244057
  H     -3.165660   -4.014940   -1.410627
  H     -3.794124   -1.759829   -0.919978
  H     -3.840231   -2.042992    0.809730

 Multiplicity           Mult            ....    1
 Number of Electrons    NEL             ....  182
 Basis Dimension        Dim             .... 1490

ORBITAL ENERGIES
----------------

  NO   OCC          E(Eh)            E(eV)
   0   2.0000     -19.885454      -541.1107
   1   2.0000     -15.152451      -412.3192
   2   2.0000     -15.064033      -409.9132
   3   2.0000     -15.026500      -408.8918
   4   2.0000     -10.876508      -295.9648
   5   2.0000     -10.867557      -295.7213
   6   2.0000     -10.839893      -294.9685
   7   2.0000     -10.831373      -294.7366
   8   2.0000     -10.795209      -293.7526
   9   2.0000     -10.793096      -293.6951
  10   2.0000     -10.791184      -293.6430
  11   2.0000     -10.780959      -293.3648
  12   2.0000     -10.780700      -293.3577
  13   2.0000     -10.780362      -293.3486
  14   2.0000     -10.779993      -293.3385
  15   2.0000     -10.778703      -293.3034
  16   2.0000     -10.778556      -293.2994
  17   2.0000     -10.778399      -293.2951
  18   2.0000     -10.778339      -293.2935
  19   2.0000     -10.777824      -293.2795
  20   2.0000     -10.776483      -293.2430
  21   2.0000     -10.772044      -293.1222
  22   2.0000     -10.770811      -293.0887
  23   2.0000     -10.770615      -293.0833
  24   2.0000     -10.764934      -292.9288
  25   2.0000     -10.763385      -292.8866
  26   2.0000      -1.289170       -35.0801
  27   2.0000      -1.182089       -32.1663
  28   2.0000      -1.119008       -30.4498
  29   2.0000      -1.040773       -28.3209
  30   2.0000      -1.035465       -28.1764
  31   2.0000      -1.025444       -27.9038
  32   2.0000      -0.984794       -26.7976
  33   2.0000      -0.970423       -26.4065
  34   2.0000      -0.936405       -25.4809
  35   2.0000      -0.919230       -25.0135
  36   2.0000      -0.906078       -24.6556
  37   2.0000      -0.904937       -24.6246
  38   2.0000      -0.892653       -24.2903
  39   2.0000      -0.881162       -23.9776
  40   2.0000      -0.810589       -22.0573
  41   2.0000      -0.805396       -21.9159
  42   2.0000      -0.765312       -20.8252
  43   2.0000      -0.755131       -20.5482
  44   2.0000      -0.743339       -20.2273
  45   2.0000      -0.735748       -20.0207
  46   2.0000      -0.719545       -19.5798
  47   2.0000      -0.703360       -19.1394
  48   2.0000      -0.676633       -18.4121
  49   2.0000      -0.670588       -18.2476
  50   2.0000      -0.644000       -17.5241
  51   2.0000      -0.626180       -17.0392
  52   2.0000      -0.616585       -16.7781
  53   2.0000      -0.596890       -16.2422
  54   2.0000      -0.593718       -16.1559
  55   2.0000      -0.583148       -15.8683
  56   2.0000      -0.575139       -15.6503
  57   2.0000      -0.562033       -15.2937
  58   2.0000      -0.556489       -15.1428
  59   2.0000      -0.543980       -14.8024
  60   2.0000      -0.543095       -14.7784
  61   2.0000      -0.535583       -14.5740
  62   2.0000      -0.530226       -14.4282
  63   2.0000      -0.524307       -14.2671
  64   2.0000      -0.517453       -14.0806
  65   2.0000      -0.516500       -14.0547
  66   2.0000      -0.511573       -13.9206
  67   2.0000      -0.509002       -13.8506
  68   2.0000      -0.497179       -13.5289
  69   2.0000      -0.491050       -13.3622
  70   2.0000      -0.471297       -12.8247
  71   2.0000      -0.468098       -12.7376
  72   2.0000      -0.465010       -12.6536
  73   2.0000      -0.456154       -12.4126
  74   2.0000      -0.453585       -12.3427
  75   2.0000      -0.438107       -11.9215
  76   2.0000      -0.432821       -11.7777
  77   2.0000      -0.425413       -11.5761
  78   2.0000      -0.419941       -11.4272
  79   2.0000      -0.410440       -11.1686
  80   2.0000      -0.407971       -11.1015
  81   2.0000      -0.404987       -11.0203
  82   2.0000      -0.378742       -10.3061
  83   2.0000      -0.376058       -10.2330
  84   2.0000      -0.334673        -9.1069
  85   2.0000      -0.334085        -9.0909
  86   2.0000      -0.311550        -8.4777
  87   2.0000      -0.311268        -8.4700
  88   2.0000      -0.302904        -8.2424
  89   2.0000      -0.274250        -7.4627
  90   2.0000      -0.240603        -6.5471
  91   0.0000      -0.010450        -0.2844
  92   0.0000       0.027188         0.7398
  93   0.0000       0.029320         0.7978
  94   0.0000       0.031088         0.8460
  95   0.0000       0.033713         0.9174

MULLIKEN ATOMIC CHARGES
-----------------------
   0 O :   -1.022398
   1 N :    0.147754
   2 C :    0.445792
   3 C :    0.264624
   4 C :   -0.658826
   5 C :    1.932827
   6 C :   -0.713402
   7 C :   -0.591868
   8 C :   -0.169221
   9 C :   -0.558755
  10 C :   -0.470899
  11 N :   -0.747323
  12 C :   -0.788289
  13 N :   -0.436655
  14 C :    1.005088
  15 C :   -0.628148
  16 C :   -0.411401
  17 C :   -0.373935
  18 C :   -0.645174
  19 C :    0.145071
  20 C :    1.807113
  21 C :   -0.121350
  22 C :   -0.145631
  23 C :   -0.303185
  24 C :   -0.323768
  25 C :   -0.455018
  26 H :    0.044315
  27 H :    0.135598
  28 H :    0.127705
  29 H :    0.261354
  30 H :    0.251570
  31 H :    0.237226
  32 H :    0.116896
  33 H :    0.041703
  34 H :    0.177966
  35 H :    0.234092
  36 H :    0.254471
  37 H :    0.209817
  38 H :    0.339403
  39 H :    0.161760
  40 H :    0.176347
  41 H :    0.196492
  42 H :    0.170856
  43 H :    0.192517
  44 H :    0.171723
  45 H :    0.161244
  46 H :    0.153922
Sum of atomic charges:   -0.0000000

LOEWDIN ATOMIC CHARGES
----------------------
   0 O :    0.211063
   1 N :   -0.306067
   2 C :   -0.501741
   3 C :   -0.029777
   4 C :   -0.055279
   5 C :   -0.421452
   6 C :   -0.076441
   7 C :   -0.132157
   8 C :   -0.143996
   9 C :   -0.130640
  10 C :   -0.068633
  11 N :    0.351685
  12 C :   -0.487316
  13 N :    0.363953
  14 C :   -0.475211
  15 C :   -0.070287
  16 C :   -0.149679
  17 C :   -0.159086
  18 C :   -0.148326
  19 C :   -0.062195
  20 C :   -0.231443
  21 C :   -0.341477
  22 C :   -0.156870
  23 C :   -0.260009
  24 C :   -0.263420
  25 C :   -0.169811
  26 H :    0.209801
  27 H :    0.221764
  28 H :    0.192174
  29 H :    0.171547
  30 H :    0.170666
  31 H :    0.172128
  32 H :    0.195074
  33 H :    0.183824
  34 H :    0.187851
  35 H :    0.172857
  36 H :    0.166725
  37 H :    0.173302
  38 H :    0.191704
  39 H :    0.206172
  40 H :    0.199801
  41 H :    0.164172
  42 H :    0.187733
  43 H :    0.163599
  44 H :    0.188361
  45 H :    0.194895
  46 H :    0.200462

  Mayer bond orders larger than 0.100000
B(  0-O ,  1-N ) :   0.5145 B(  0-O ,  2-C ) :   0.1405 B(  0-O ,  3-C ) :  -0.1586
B(  0-O , 21-C ) :   0.1825 B(  0-O , 22-C ) :  -0.1065 B(  1-N ,  2-C ) :   1.4536
B(  1-N ,  3-C ) :  -0.1237 B(  1-N ,  4-C ) :   0.1358 B(  1-N , 11-N ) :  -0.2563
B(  1-N , 12-C ) :   0.1464 B(  1-N , 20-C ) :  -0.1443 B(  1-N , 21-C ) :   0.8375
B(  2-C ,  3-C ) :  -1.0296 B(  2-C ,  4-C ) :   0.2117 B(  2-C ,  5-C ) :   0.1475
B(  2-C , 10-C ) :   0.3502 B(  2-C , 11-N ) :   1.3124 B(  2-C , 12-C ) :  -0.8770
B(  2-C , 20-C ) :   0.2868 B(  2-C , 21-C ) :  -0.4844 B(  2-C , 26-H ) :  -0.2621
B(  2-C , 27-H ) :  -0.1073 B(  3-C ,  4-C ) :   0.9778 B(  3-C ,  6-C ) :   0.1626
B(  3-C ,  9-C ) :  -0.1316 B(  3-C , 10-C ) :  -0.1338 B(  3-C , 12-C ) :   0.2437
B(  3-C , 21-C ) :   0.2318 B(  3-C , 26-H ) :   1.3746 B(  4-C ,  6-C ) :   0.2435
B(  4-C ,  8-C ) :   0.1046 B(  4-C ,  9-C ) :   0.1752 B(  4-C , 26-H ) :  -0.1215
B(  4-C , 27-H ) :   1.2530 B(  5-C ,  6-C ) :   0.2650 B(  5-C ,  7-C ) :  -0.2041
B(  5-C ,  9-C ) :  -0.3592 B(  5-C , 10-C ) :   0.5879 B(  5-C , 27-H ) :  -0.1785
B(  5-C , 28-H ) :  -0.1836 B(  5-C , 32-H ) :  -0.1082 B(  6-C ,  7-C ) :   1.2759
B(  6-C ,  9-C ) :   0.1433 B(  6-C , 28-H ) :   1.1921 B(  7-C ,  8-C ) :   1.0771
B(  7-C ,  9-C ) :   0.1274 B(  7-C , 29-H ) :   0.9603 B(  8-C ,  9-C ) :   1.1061
B(  8-C , 30-H ) :   0.9678 B(  9-C , 10-C ) :   1.2965 B(  9-C , 31-H ) :   0.9894
B( 10-C , 12-C ) :  -0.1178 B( 10-C , 14-C ) :  -0.1163 B( 10-C , 32-H ) :   1.1579
B( 11-N , 13-N ) :  -0.3318 B( 11-N , 14-C ) :   0.1192 B( 11-N , 19-C ) :  -0.1087
B( 12-C , 13-N ) :   0.7761 B( 12-C , 17-C ) :   0.1370 B( 12-C , 19-C ) :   0.1491
B( 12-C , 20-C ) :  -1.9497 B( 12-C , 21-C ) :   1.3078 B( 13-N , 14-C ) :   0.5620
B( 13-N , 15-C ) :   0.1422 B( 13-N , 19-C ) :  -0.4383 B( 13-N , 20-C ) :  -0.1985
B( 13-N , 21-C ) :   0.1708 B( 13-N , 33-H ) :   1.2383 B( 14-C , 15-C ) :   0.6873
B( 14-C , 17-C ) :  -0.1224 B( 14-C , 18-C ) :  -0.2058 B( 14-C , 19-C ) :   0.9754
B( 14-C , 20-C ) :   0.1106 B( 14-C , 21-C ) :  -0.1281 B( 15-C , 16-C ) :   1.1344
B( 15-C , 34-H ) :   1.0622 B( 16-C , 17-C ) :   1.1329 B( 16-C , 35-H ) :   0.9945
B( 17-C , 18-C ) :   1.2549 B( 17-C , 19-C ) :  -0.1119 B( 17-C , 36-H ) :   0.9545
B( 18-C , 19-C ) :   0.8385 B( 18-C , 37-H ) :   1.0351 B( 19-C , 38-H ) :   0.9258
B( 20-C , 21-C ) :   0.1796 B( 20-C , 25-C ) :   0.8339 B( 21-C , 22-C ) :   0.5809
B( 21-C , 39-H ) :  -0.1032 B( 22-C , 23-C ) :   0.8174 B( 22-C , 39-H ) :   1.0239
B( 22-C , 40-H ) :   0.9947 B( 23-C , 24-C ) :   0.8791 B( 23-C , 41-H ) :   1.0111
B( 23-C , 42-H ) :   1.0049 B( 24-C , 25-C ) :   0.8243 B( 24-C , 43-H ) :   1.0116
B( 24-C , 44-H ) :   1.0089 B( 25-C , 45-H ) :   1.0105 B( 25-C , 46-H ) :   1.0439

MP2 TOTAL ENERGY:    -1089.734019719 Eh

-----------------------------------------------------------------------------
         ABSORPTION SPECTRUM VIA TRANSITION ELECTRIC DIPOLE MOMENTS
-----------------------------------------------------------------------------
State   Energy    Wavelength  fosc         T2        TX        TY        TZ
        (cm-1)      (nm)                 (au**2)    (au)      (au)      (au)
-----------------------------------------------------------------------------
   1   24315.2    411.3   0.636351432   8.61579  -2.34646  -1.76230   0.06492
   2   32032.7    312.2   0.383778750   3.94424   1.71438   1.00136  -0.04919
   3   31614.6    316.3   0.713505330   7.42993  -1.47130   2.28936  -0.15505
   4   37277.9    268.3   0.021619416   0.19093  -0.21407  -0.08260  -0.37186
   5   37660.1    265.5   0.010054059   0.08789  -0.22372   0.19430  -0.00927
   6   37928.0    263.7   0.063656835   0.55254   0.72198  -0.16927   0.05132
   7   30266.6    330.4   0.000939503   0.01022  -0.05227   0.03974  -0.07686
   8   40413.6    247.4   0.007831610   0.06380   0.02597   0.01097  -0.25100
   9   39682.2    252.0   0.087572322   0.72652   0.09937   0.84610  -0.02762
  10   37434.6    267.1   0.099710532   0.87689   0.83574  -0.42165   0.02536

Dispersion correction           -0.036131005
FINAL SINGLE POINT ENERGY     -1087.829667809157

DIPOLE MOMENT
-------------
                                X             Y             Z
Electronic contribution:      6.09852       4.87001       0.08483
Nuclear contribution   :     -8.66637      -4.12835      -0.34862
                        -----------------------------------------
Total Dipole Moment    :     -2.56785       0.74166      -0.26379
                        -----------------------------------------
Magnitude (a.u.)       :      2.68580
Magnitude (Debye)      :      6.82675

Rotational constants in cm-1:     0.007424     0.004484     0.002812
Rotational constants in MHz :   222.577070   134.438636    84.299701

                             ****ORCA TERMINATED NORMALLY****
TOTAL RUN TIME: 0 days 19 hours 17 minutes 53 seconds 489 msec
