                         Program Version 5.0.2 -  RELEASE  -
|  1> ! pbe0 d3bj aug-cc-PVTZ RIJCOSX Opt
|  2> %maxcore 4000
|  3> %basis
|  4>  AuxJ "aug-cc-PVTZ/JK"
|  5>  AuxC "aug-cc-PVTZ/C"
|  6>  newGTO H "cc-PVTZ" end
|  7>  newAuxJGTO H "cc-PVTZ/JK" end
|  8>  newAuxCGTO H "cc-PVTZ/C" end
|  9> end
| 10> %cpcm
| 11>  SMD true
| 12>  SMDsolvent "dichloromethane"
| 13> end
| 14> %pal nprocs 4 end
| 15> * xyz 0 1
| 16> O          1.37360       -3.19720        0.27300
| 17> N          0.43480       -2.34810        0.16420
| 18> C          0.68430       -1.00440        0.07990
| 19> C          2.06010       -0.58820        0.10840
| 20> C          2.45480        0.68660       -0.04490
| 21> C          3.81500        1.17730       -0.01470
| 22> C          4.03890        2.54900       -0.17530
| 23> C          5.31730        3.06950       -0.14920
| 24> C          6.40480        2.23130        0.03690
| 25> C          6.20080        0.86930        0.19610
| 26> C          4.92380        0.34560        0.17150
| 27> N         -0.28860       -0.11830       -0.00780
| 28> C         -1.55630       -0.49690       -0.04370
| 29> N         -2.54310        0.44490       -0.11120
| 30> C         -2.47310        1.83250       -0.12240
| 31> C         -3.65380        2.53130       -0.38160
| 32> C         -3.66330        3.91180       -0.39780
| 33> C         -2.49840        4.62010       -0.15350
| 34> C         -1.32800        3.93050        0.11450
| 35> C         -1.30690        2.54860        0.13460
| 36> C         -1.89660       -1.87410       -0.01220
| 37> C         -0.86350       -2.77240        0.12310
| 38> C         -1.05330       -4.24890        0.24110
| 39> C         -2.49650       -4.60850        0.56160
| 40> C         -3.42190       -3.84490       -0.37670
| 41> C         -3.32360       -2.34580       -0.10360
| 42> H          2.75490       -1.40150        0.25770
| 43> H          1.69090        1.43460       -0.21110
| 44> H          3.19350        3.20660       -0.32130
| 45> H          5.46950        4.13190       -0.27410
| 46> H          7.40580        2.63640        0.05730
| 47> H          7.04650        0.21260        0.34060
| 48> H          4.78350       -0.71650        0.29630
| 49> H         -3.47930        0.08000       -0.20720
| 50> H         -4.56780        1.98400       -0.57170
| 51> H         -4.58500        4.43650       -0.60230
| 52> H         -2.50570        5.69930       -0.16860
| 53> H         -0.41720        4.47550        0.31530
| 54> H         -0.40160        2.00990        0.35070
| 55> H         -0.73870       -4.71330       -0.69920
| 56> H         -0.36190       -4.61450        1.00560
| 57> H         -2.64230       -5.68350        0.45150
| 58> H         -2.72490       -4.34050        1.59530
| 59> H         -4.45570       -4.16960       -0.24700
| 60> H         -3.13190       -4.04740       -1.40980
| 61> H         -3.83910       -1.80770       -0.90550
| 62> H         -3.83470       -2.11390        0.83780
| 63> *
| 64>
| 65>
| 66> $new_job
| 67> ! b2plyp aug-cc-PVTZ RIJCOSX SP
| 68> %maxcore 4000
| 69> %basis
| 70>  AuxJ "aug-cc-PVTZ/JK"
| 71>  AuxC "aug-cc-PVTZ/C"
| 72>  newGTO H "cc-PVTZ" end
| 73>  newAuxJGTO H "cc-PVTZ/JK" end
| 74>  newAuxCGTO H "cc-PVTZ/C" end
| 75> end
| 76> %cpcm
| 77>  SMD true
| 78>  SMDsolvent "dichloromethane"
| 79> end
| 80> %pal nprocs 4 end
| 81> %tddft
| 82>  nroots 10
| 83>  maxdim 7
| 84> end
| 85> * xyzfile 0 1
| 86>
| 87>                          ****END OF INPUT****
 Total Charge           Charge          ....    0
 Multiplicity           Mult            ....    1
 Number of Electrons    NEL             ....  182
Dispersion correction           -0.055380459
FINAL SINGLE POINT ENERGY     -1089.625062734810
Dispersion correction            ... done
Dispersion correction           -0.055117897
FINAL SINGLE POINT ENERGY     -1089.626489837963
Dispersion correction            ... done
Dispersion correction           -0.055185606
FINAL SINGLE POINT ENERGY     -1089.626821282995
Dispersion correction            ... done
FINAL SINGLE POINT ENERGY     -1089.626899116437
FINAL SINGLE POINT ENERGY     -1089.626915704046
FINAL SINGLE POINT ENERGY     -1089.626902883632
FINAL SINGLE POINT ENERGY     -1089.626897672031
FINAL SINGLE POINT ENERGY     -1089.626903203197
Dispersion correction            ... done
Dispersion correction           -0.055183730
FINAL SINGLE POINT ENERGY     -1089.626902866012
Dispersion correction            ... done
                    ***********************HURRAY********************
Dispersion correction           -0.055184592
FINAL SINGLE POINT ENERGY     -1089.626902958946

CARTESIAN COORDINATES (ANGSTROEM)
---------------------------------
  O      1.390996   -3.223131    0.319967
  N      0.447304   -2.350985    0.198469
  C      0.711863   -1.018908    0.100466
  C      2.101331   -0.620702    0.110114
  C      2.487294    0.660071    0.012009
  C      3.855435    1.151730    0.010045
  C      4.065469    2.533912   -0.025150
  C      5.346548    3.062792   -0.023592
  C      6.445641    2.216635    0.009475
  C      6.252410    0.838834    0.039735
  C      4.974784    0.310588    0.039667
  N     -0.253665   -0.117469   -0.000646
  C     -1.517352   -0.494012   -0.038543
  N     -2.508725    0.439776   -0.128007
  C     -2.465399    1.830436   -0.144517
  C     -3.669338    2.484312   -0.433703
  C     -3.738060    3.864096   -0.454311
  C     -2.608612    4.629688   -0.187644
  C     -1.417015    3.984369    0.103845
  C     -1.331859    2.598928    0.128933
  C     -1.878009   -1.863405    0.003950
  C     -0.859658   -2.770998    0.159201
  C     -1.071921   -4.235441    0.300591
  C     -2.527315   -4.587308    0.554586
  C     -3.437010   -3.803018   -0.371269
  C     -3.305399   -2.311215   -0.109868
  H      2.810641   -1.431226    0.199804
  H      1.719286    1.423272   -0.070810
  H      3.205740    3.194601   -0.051803
  H      5.486724    4.136998   -0.049165
  H      7.449300    2.624868    0.009364
  H      7.107418    0.173356    0.061446
  H      4.844832   -0.764710    0.058498
  H     -3.438029    0.063736   -0.220347
  H     -4.554010    1.891997   -0.643529
  H     -4.682264    4.344643   -0.682605
  H     -2.660340    5.711296   -0.205544
  H     -0.526650    4.563584    0.320592
  H     -0.397987    2.114226    0.359979
  H     -0.703763   -4.723337   -0.609266
  H     -0.419736   -4.593361    1.099968
  H     -2.668113   -5.661444    0.421190
  H     -2.783894   -4.357452    1.593958
  H     -4.478777   -4.103361   -0.244057
  H     -3.165660   -4.014940   -1.410627
  H     -3.794124   -1.759829   -0.919978
  H     -3.840231   -2.042992    0.809730

 Multiplicity           Mult            ....    1
 Number of Electrons    NEL             ....  182
 Basis Dimension        Dim             .... 1490

ORBITAL ENERGIES
----------------

  NO   OCC          E(Eh)            E(eV)
   0   2.0000     -19.674488      -535.3700
   1   2.0000     -14.964140      -407.1950
   2   2.0000     -14.876088      -404.7989
   3   2.0000     -14.838068      -403.7644
   4   2.0000     -10.712554      -291.5034
   5   2.0000     -10.703669      -291.2616
   6   2.0000     -10.677437      -290.5478
   7   2.0000     -10.670052      -290.3469
   8   2.0000     -10.636141      -289.4241
   9   2.0000     -10.631428      -289.2959
  10   2.0000     -10.630773      -289.2781
  11   2.0000     -10.620448      -288.9971
  12   2.0000     -10.620254      -288.9918
  13   2.0000     -10.619891      -288.9819
  14   2.0000     -10.619445      -288.9698
  15   2.0000     -10.619132      -288.9613
  16   2.0000     -10.618580      -288.9463
  17   2.0000     -10.618291      -288.9384
  18   2.0000     -10.617997      -288.9304
  19   2.0000     -10.617868      -288.9269
  20   2.0000     -10.616514      -288.8900
  21   2.0000     -10.612630      -288.7843
  22   2.0000     -10.610801      -288.7346
  23   2.0000     -10.610656      -288.7306
  24   2.0000     -10.605756      -288.5973
  25   2.0000     -10.604198      -288.5549
  26   2.0000      -1.236652       -33.6510
  27   2.0000      -1.130795       -30.7705
  28   2.0000      -1.069991       -29.1159
  29   2.0000      -0.993494       -27.0343
  30   2.0000      -0.988624       -26.9018
  31   2.0000      -0.978786       -26.6341
  32   2.0000      -0.939881       -25.5755
  33   2.0000      -0.925605       -25.1870
  34   2.0000      -0.892927       -24.2978
  35   2.0000      -0.876884       -23.8612
  36   2.0000      -0.863086       -23.4858
  37   2.0000      -0.861972       -23.4554
  38   2.0000      -0.850536       -23.1443
  39   2.0000      -0.839318       -22.8390
  40   2.0000      -0.772245       -21.0139
  41   2.0000      -0.767672       -20.8894
  42   2.0000      -0.728939       -19.8354
  43   2.0000      -0.718873       -19.5615
  44   2.0000      -0.707822       -19.2608
  45   2.0000      -0.700087       -19.0503
  46   2.0000      -0.684682       -18.6311
  47   2.0000      -0.669095       -18.2070
  48   2.0000      -0.644297       -17.5322
  49   2.0000      -0.637606       -17.3501
  50   2.0000      -0.612929       -16.6786
  51   2.0000      -0.595774       -16.2118
  52   2.0000      -0.586489       -15.9592
  53   2.0000      -0.567096       -15.4315
  54   2.0000      -0.565060       -15.3761
  55   2.0000      -0.553680       -15.0664
  56   2.0000      -0.546539       -14.8721
  57   2.0000      -0.532895       -14.5008
  58   2.0000      -0.528335       -14.3767
  59   2.0000      -0.515945       -14.0396
  60   2.0000      -0.515179       -14.0187
  61   2.0000      -0.508636       -13.8407
  62   2.0000      -0.502589       -13.6761
  63   2.0000      -0.496756       -13.5174
  64   2.0000      -0.490197       -13.3389
  65   2.0000      -0.489264       -13.3136
  66   2.0000      -0.484587       -13.1863
  67   2.0000      -0.482877       -13.1397
  68   2.0000      -0.471228       -12.8228
  69   2.0000      -0.465503       -12.6670
  70   2.0000      -0.447288       -12.1713
  71   2.0000      -0.442165       -12.0319
  72   2.0000      -0.441311       -12.0087
  73   2.0000      -0.432559       -11.7705
  74   2.0000      -0.428258       -11.6535
  75   2.0000      -0.412907       -11.2358
  76   2.0000      -0.407830       -11.0976
  77   2.0000      -0.400691       -10.9034
  78   2.0000      -0.395904       -10.7731
  79   2.0000      -0.388109       -10.5610
  80   2.0000      -0.385164       -10.4808
  81   2.0000      -0.382260       -10.4018
  82   2.0000      -0.356903        -9.7118
  83   2.0000      -0.352593        -9.5945
  84   2.0000      -0.317646        -8.6436
  85   2.0000      -0.308561        -8.3964
  86   2.0000      -0.296677        -8.0730
  87   2.0000      -0.296011        -8.0549
  88   2.0000      -0.285826        -7.7777
  89   2.0000      -0.259929        -7.0730
  90   2.0000      -0.225375        -6.1328
  91   0.0000      -0.026181        -0.7124
  92   0.0000       0.015209         0.4139
  93   0.0000       0.020382         0.5546
  94   0.0000       0.023287         0.6337
  95   0.0000       0.026339         0.7167

MULLIKEN ATOMIC CHARGES
-----------------------
   0 O :   -1.020771
   1 N :    0.171426
   2 C :    0.446116
   3 C :    0.295496
   4 C :   -0.665654
   5 C :    1.944571
   6 C :   -0.708637
   7 C :   -0.570143
   8 C :   -0.167672
   9 C :   -0.543939
  10 C :   -0.471940
  11 N :   -0.775204
  12 C :   -0.697538
  13 N :   -0.438794
  14 C :    1.030584
  15 C :   -0.615361
  16 C :   -0.402460
  17 C :   -0.373938
  18 C :   -0.633311
  19 C :    0.129745
  20 C :    1.767786
  21 C :   -0.157277
  22 C :   -0.118280
  23 C :   -0.271882
  24 C :   -0.295370
  25 C :   -0.428424
  26 H :    0.034293
  27 H :    0.122707
  28 H :    0.119017
  29 H :    0.250103
  30 H :    0.239709
  31 H :    0.227817
  32 H :    0.105868
  33 H :    0.032118
  34 H :    0.166160
  35 H :    0.226169
  36 H :    0.242188
  37 H :    0.200169
  38 H :    0.332462
  39 H :    0.148604
  40 H :    0.160635
  41 H :    0.181696
  42 H :    0.156583
  43 H :    0.177778
  44 H :    0.157706
  45 H :    0.147794
  46 H :    0.141294
Sum of atomic charges:    0.0000000

LOEWDIN ATOMIC CHARGES
----------------------
   0 O :    0.224598
   1 N :   -0.304142
   2 C :   -0.502998
   3 C :   -0.031991
   4 C :   -0.056966
   5 C :   -0.421492
   6 C :   -0.076961
   7 C :   -0.132208
   8 C :   -0.144362
   9 C :   -0.130747
  10 C :   -0.069054
  11 N :    0.351866
  12 C :   -0.487800
  13 N :    0.363888
  14 C :   -0.474343
  15 C :   -0.070867
  16 C :   -0.149815
  17 C :   -0.159279
  18 C :   -0.148495
  19 C :   -0.062776
  20 C :   -0.232655
  21 C :   -0.343260
  22 C :   -0.159105
  23 C :   -0.260512
  24 C :   -0.263707
  25 C :   -0.168934
  26 H :    0.209439
  27 H :    0.221135
  28 H :    0.191893
  29 H :    0.171250
  30 H :    0.170239
  31 H :    0.171832
  32 H :    0.194746
  33 H :    0.183900
  34 H :    0.187714
  35 H :    0.172400
  36 H :    0.166455
  37 H :    0.172877
  38 H :    0.191392
  39 H :    0.206202
  40 H :    0.199685
  41 H :    0.164291
  42 H :    0.188008
  43 H :    0.163725
  44 H :    0.188650
  45 H :    0.195279
  46 H :    0.201008

  Mayer bond orders larger than 0.100000
B(  0-O ,  1-N ) :   0.4887 B(  0-O ,  2-C ) :   0.1898 B(  0-O ,  3-C ) :  -0.1655
B(  0-O , 21-C ) :   0.1785 B(  0-O , 22-C ) :  -0.1054 B(  1-N ,  2-C ) :   1.3731
B(  1-N ,  4-C ) :   0.1361 B(  1-N , 11-N ) :  -0.2470 B(  1-N , 12-C ) :   0.1587
B(  1-N , 20-C ) :  -0.1269 B(  1-N , 21-C ) :   0.8216 B(  2-C ,  3-C ) :  -1.0288
B(  2-C ,  4-C ) :   0.1918 B(  2-C ,  5-C ) :   0.1461 B(  2-C ,  6-C ) :  -0.1031
B(  2-C , 10-C ) :   0.3366 B(  2-C , 11-N ) :   1.3017 B(  2-C , 12-C ) :  -0.8026
B(  2-C , 20-C ) :   0.2697 B(  2-C , 21-C ) :  -0.4362 B(  2-C , 26-H ) :  -0.2588
B(  3-C ,  4-C ) :   0.9805 B(  3-C ,  6-C ) :   0.1750 B(  3-C ,  9-C ) :  -0.1328
B(  3-C , 10-C ) :  -0.1280 B(  3-C , 12-C ) :   0.2306 B(  3-C , 21-C ) :   0.2311
B(  3-C , 26-H ) :   1.3709 B(  4-C ,  6-C ) :   0.2640 B(  4-C ,  8-C ) :   0.1125
B(  4-C ,  9-C ) :   0.1523 B(  4-C , 10-C ) :   0.1092 B(  4-C , 26-H ) :  -0.1155
B(  4-C , 27-H ) :   1.2717 B(  5-C ,  6-C ) :   0.2692 B(  5-C ,  7-C ) :  -0.1941
B(  5-C ,  9-C ) :  -0.3228 B(  5-C , 10-C ) :   0.5999 B(  5-C , 27-H ) :  -0.1920
B(  5-C , 28-H ) :  -0.1790 B(  5-C , 32-H ) :  -0.1013 B(  6-C ,  7-C ) :   1.2894
B(  6-C ,  9-C ) :   0.1321 B(  6-C , 28-H ) :   1.1840 B(  7-C ,  8-C ) :   1.1008
B(  7-C ,  9-C ) :   0.1266 B(  7-C , 29-H ) :   0.9562 B(  8-C ,  9-C ) :   1.1205
B(  8-C , 30-H ) :   0.9626 B(  9-C , 10-C ) :   1.2959 B(  9-C , 31-H ) :   0.9803
B( 10-C , 32-H ) :   1.1525 B( 11-N , 13-N ) :  -0.3115 B( 11-N , 14-C ) :   0.1320
B( 11-N , 19-C ) :  -0.1053 B( 12-C , 13-N ) :   0.7649 B( 12-C , 17-C ) :   0.1375
B( 12-C , 19-C ) :   0.1403 B( 12-C , 20-C ) :  -1.8611 B( 12-C , 21-C ) :   1.2470
B( 13-N , 14-C ) :   0.5457 B( 13-N , 15-C ) :   0.1652 B( 13-N , 19-C ) :  -0.4135
B( 13-N , 20-C ) :  -0.1825 B( 13-N , 21-C ) :   0.1683 B( 13-N , 33-H ) :   1.2397
B( 14-C , 15-C ) :   0.6807 B( 14-C , 17-C ) :  -0.1219 B( 14-C , 18-C ) :  -0.2120
B( 14-C , 19-C ) :   0.9693 B( 14-C , 20-C ) :   0.1365 B( 14-C , 21-C ) :  -0.1280
B( 15-C , 16-C ) :   1.1393 B( 15-C , 34-H ) :   1.0591 B( 16-C , 17-C ) :   1.1421
B( 16-C , 35-H ) :   0.9894 B( 17-C , 18-C ) :   1.2680 B( 17-C , 36-H ) :   0.9530
B( 18-C , 19-C ) :   0.8768 B( 18-C , 37-H ) :   1.0313 B( 19-C , 38-H ) :   0.9162
B( 20-C , 21-C ) :   0.2334 B( 20-C , 25-C ) :   0.8637 B( 21-C , 22-C ) :   0.6117
B( 22-C , 23-C ) :   0.8218 B( 22-C , 39-H ) :   1.0222 B( 22-C , 40-H ) :   0.9937
B( 23-C , 24-C ) :   0.8779 B( 23-C , 41-H ) :   1.0138 B( 23-C , 42-H ) :   1.0096
B( 24-C , 25-C ) :   0.8311 B( 24-C , 43-H ) :   1.0146 B( 24-C , 44-H ) :   1.0136
B( 25-C , 45-H ) :   1.0100 B( 25-C , 46-H ) :   1.0443

MP2 TOTAL ENERGY:    -1089.944290142 Eh

-----------------------------------------------------------------------------
         ABSORPTION SPECTRUM VIA TRANSITION ELECTRIC DIPOLE MOMENTS
-----------------------------------------------------------------------------
State   Energy    Wavelength  fosc         T2        TX        TY        TZ
        (cm-1)      (nm)                 (au**2)    (au)      (au)      (au)
-----------------------------------------------------------------------------
   1   22541.8    443.6   0.509862423   7.44629   2.17820   1.64255  -0.06128
   2   31608.6    316.4   0.550306772   5.73158   2.29211   0.69096  -0.01902
   3   30628.7    326.5   0.661220488   7.10711  -0.96445   2.47985  -0.16527
   4   28177.3    354.9   0.001138691   0.01330  -0.07115   0.04672  -0.07784
   5   36115.3    276.9   0.019806117   0.18054   0.22026   0.13518   0.33728
   6   36454.1    274.3   0.005780049   0.05220  -0.19081   0.12541   0.00795
   7   36185.2    276.4   0.087370007   0.79489   0.85159  -0.25700   0.06024
   8   34939.4    286.2   0.127665681   1.20291   0.66579  -0.86146   0.13236
   9   38702.2    258.4   0.026757438   0.22761  -0.26884   0.31882   0.23171
  10   38008.0    263.1   0.085682058   0.74215  -0.41279  -0.75447   0.05022

Dispersion correction           -0.048923575
FINAL SINGLE POINT ENERGY     -1088.441518239000

DIPOLE MOMENT
-------------
                                X             Y             Z
Electronic contribution:      6.10116       4.78056       0.09196
Nuclear contribution   :     -8.66637      -4.12835      -0.34862
                        -----------------------------------------
Total Dipole Moment    :     -2.56520       0.65221      -0.25666
                        -----------------------------------------
Magnitude (a.u.)       :      2.65923
Magnitude (Debye)      :      6.75923

Rotational constants in cm-1:     0.007424     0.004484     0.002812
Rotational constants in MHz :   222.577070   134.438636    84.299701

                             ****ORCA TERMINATED NORMALLY****
TOTAL RUN TIME: 0 days 17 hours 18 minutes 41 seconds 991 msec
