                         Program Version 5.0.2 -  RELEASE  -
|  1> ! pbe0 aug-cc-PVTZ RIJCOSX Opt
|  2> %maxcore 4000
|  3> %basis
|  4>  AuxJ "aug-cc-PVTZ/JK"
|  5>  AuxC "aug-cc-PVTZ/C"
|  6>  newGTO H "cc-PVTZ" end
|  7>  newAuxJGTO H "cc-PVTZ/JK" end
|  8>  newAuxCGTO H "cc-PVTZ/C" end
|  9> end
| 10> %cpcm
| 11>  SMD true
| 12>  SMDsolvent "dichloromethane"
| 13> end
| 14> %pal nprocs 4 end
| 15> * xyz 0 1
| 16> O          1.37360       -3.19720        0.27300
| 17> N          0.43480       -2.34810        0.16420
| 18> C          0.68430       -1.00440        0.07990
| 19> C          2.06010       -0.58820        0.10840
| 20> C          2.45480        0.68660       -0.04490
| 21> C          3.81500        1.17730       -0.01470
| 22> C          4.03890        2.54900       -0.17530
| 23> C          5.31730        3.06950       -0.14920
| 24> C          6.40480        2.23130        0.03690
| 25> C          6.20080        0.86930        0.19610
| 26> C          4.92380        0.34560        0.17150
| 27> N         -0.28860       -0.11830       -0.00780
| 28> C         -1.55630       -0.49690       -0.04370
| 29> N         -2.54310        0.44490       -0.11120
| 30> C         -2.47310        1.83250       -0.12240
| 31> C         -3.65380        2.53130       -0.38160
| 32> C         -3.66330        3.91180       -0.39780
| 33> C         -2.49840        4.62010       -0.15350
| 34> C         -1.32800        3.93050        0.11450
| 35> C         -1.30690        2.54860        0.13460
| 36> C         -1.89660       -1.87410       -0.01220
| 37> C         -0.86350       -2.77240        0.12310
| 38> C         -1.05330       -4.24890        0.24110
| 39> C         -2.49650       -4.60850        0.56160
| 40> C         -3.42190       -3.84490       -0.37670
| 41> C         -3.32360       -2.34580       -0.10360
| 42> H          2.75490       -1.40150        0.25770
| 43> H          1.69090        1.43460       -0.21110
| 44> H          3.19350        3.20660       -0.32130
| 45> H          5.46950        4.13190       -0.27410
| 46> H          7.40580        2.63640        0.05730
| 47> H          7.04650        0.21260        0.34060
| 48> H          4.78350       -0.71650        0.29630
| 49> H         -3.47930        0.08000       -0.20720
| 50> H         -4.56780        1.98400       -0.57170
| 51> H         -4.58500        4.43650       -0.60230
| 52> H         -2.50570        5.69930       -0.16860
| 53> H         -0.41720        4.47550        0.31530
| 54> H         -0.40160        2.00990        0.35070
| 55> H         -0.73870       -4.71330       -0.69920
| 56> H         -0.36190       -4.61450        1.00560
| 57> H         -2.64230       -5.68350        0.45150
| 58> H         -2.72490       -4.34050        1.59530
| 59> H         -4.45570       -4.16960       -0.24700
| 60> H         -3.13190       -4.04740       -1.40980
| 61> H         -3.83910       -1.80770       -0.90550
| 62> H         -3.83470       -2.11390        0.83780
| 63> *
| 64>
| 65>
| 66> $new_job
| 67> ! pbe0 aug-cc-PVTZ RIJCOSX SP
| 68> %maxcore 4000
| 69> %basis
| 70>  AuxJ "aug-cc-PVTZ/JK"
| 71>  AuxC "aug-cc-PVTZ/C"
| 72>  newGTO H "cc-PVTZ" end
| 73>  newAuxJGTO H "cc-PVTZ/JK" end
| 74>  newAuxCGTO H "cc-PVTZ/C" end
| 75> end
| 76> %cpcm
| 77>  SMD true
| 78>  SMDsolvent "dichloromethane"
| 79> end
| 80> %pal nprocs 4 end
| 81> %tddft
| 82>  nroots 10
| 83>  maxdim 7
| 84> end
| 85> * xyzfile 0 1
| 86>
| 87>                          ****END OF INPUT****
 Total Charge           Charge          ....    0
 Multiplicity           Mult            ....    1
 Number of Electrons    NEL             ....  182
FINAL SINGLE POINT ENERGY     -1089.569682267735
FINAL SINGLE POINT ENERGY     -1089.571326010651
FINAL SINGLE POINT ENERGY     -1089.571677290464
FINAL SINGLE POINT ENERGY     -1089.571774496116
FINAL SINGLE POINT ENERGY     -1089.571789588442
FINAL SINGLE POINT ENERGY     -1089.571790692844
FINAL SINGLE POINT ENERGY     -1089.571789499251
FINAL SINGLE POINT ENERGY     -1089.571779233749
                    ***********************HURRAY********************
FINAL SINGLE POINT ENERGY     -1089.571784670177

CARTESIAN COORDINATES (ANGSTROEM)
---------------------------------
  O      1.394744   -3.210573    0.326043
  N      0.450590   -2.339610    0.201171
  C      0.713953   -1.006695    0.101172
  C      2.105674   -0.611565    0.111764
  C      2.504349    0.665723    0.011727
  C      3.878689    1.144895    0.010621
  C      4.102647    2.525221   -0.033442
  C      5.388664    3.042701   -0.032163
  C      6.480293    2.187142    0.009677
  C      6.274144    0.811367    0.049030
  C      4.991447    0.294539    0.049228
  N     -0.253228   -0.106212   -0.002383
  C     -1.516812   -0.485135   -0.042434
  N     -2.512655    0.445766   -0.134668
  C     -2.485220    1.838152   -0.147784
  C     -3.699845    2.478878   -0.424960
  C     -3.786500    3.857940   -0.440165
  C     -2.664769    4.637196   -0.179945
  C     -1.462605    4.005892    0.098583
  C     -1.359382    2.621036    0.117644
  C     -1.875749   -1.856270    0.000777
  C     -0.855831   -2.762048    0.159888
  C     -1.065155   -4.228070    0.302791
  C     -2.520711   -4.586481    0.551299
  C     -3.432249   -3.802797   -0.373986
  C     -3.302756   -2.309362   -0.115052
  H      2.809608   -1.426861    0.203630
  H      1.744458    1.437110   -0.073777
  H      3.249916    3.194875   -0.066864
  H      5.538188    4.115656   -0.064739
  H      7.487801    2.586315    0.009470
  H      7.123005    0.137994    0.077869
  H      4.853311   -0.779770    0.075679
  H     -3.439588    0.062824   -0.224355
  H     -4.579671    1.877190   -0.629473
  H     -4.738976    4.326902   -0.658904
  H     -2.730399    5.718317   -0.193109
  H     -0.577757    4.595871    0.309640
  H     -0.416041    2.148969    0.338309
  H     -0.690256   -4.716904   -0.604018
  H     -0.415476   -4.583291    1.105758
  H     -2.656717   -5.660863    0.412678
  H     -2.781493   -4.363738    1.591286
  H     -4.473774   -4.103902   -0.244007
  H     -3.164402   -4.016505   -1.414006
  H     -3.792311   -1.761737   -0.927502
  H     -3.841055   -2.040585    0.802603

 Multiplicity           Mult            ....    1
 Number of Electrons    NEL             ....  182
 Basis Dimension        Dim             .... 1490

ORBITAL ENERGIES
----------------

  NO   OCC          E(Eh)            E(eV)
   0   2.0000     -19.169408      -521.6261
   1   2.0000     -14.512660      -394.9096
   2   2.0000     -14.426477      -392.5644
   3   2.0000     -14.387107      -391.4931
   4   2.0000     -10.314288      -280.6660
   5   2.0000     -10.305503      -280.4270
   6   2.0000     -10.283849      -279.8377
   7   2.0000     -10.279050      -279.7072
   8   2.0000     -10.250771      -278.9377
   9   2.0000     -10.242917      -278.7240
  10   2.0000     -10.239055      -278.6189
  11   2.0000     -10.232150      -278.4310
  12   2.0000     -10.230566      -278.3879
  13   2.0000     -10.230408      -278.3835
  14   2.0000     -10.230180      -278.3774
  15   2.0000     -10.229549      -278.3602
  16   2.0000     -10.229315      -278.3538
  17   2.0000     -10.229261      -278.3524
  18   2.0000     -10.228950      -278.3439
  19   2.0000     -10.227960      -278.3169
  20   2.0000     -10.227903      -278.3154
  21   2.0000     -10.225196      -278.2417
  22   2.0000     -10.222535      -278.1693
  23   2.0000     -10.221636      -278.1449
  24   2.0000     -10.218515      -278.0599
  25   2.0000     -10.216958      -278.0176
  26   2.0000      -1.128924       -30.7196
  27   2.0000      -1.024102       -27.8672
  28   2.0000      -0.968620       -26.3575
  29   2.0000      -0.895836       -24.3769
  30   2.0000      -0.891558       -24.2605
  31   2.0000      -0.882636       -24.0177
  32   2.0000      -0.847377       -23.0583
  33   2.0000      -0.832765       -22.6607
  34   2.0000      -0.803159       -21.8551
  35   2.0000      -0.789593       -21.4859
  36   2.0000      -0.773755       -21.0549
  37   2.0000      -0.772849       -21.0303
  38   2.0000      -0.763591       -20.7784
  39   2.0000      -0.752688       -20.4817
  40   2.0000      -0.693642       -18.8750
  41   2.0000      -0.690607       -18.7924
  42   2.0000      -0.654562       -17.8115
  43   2.0000      -0.644326       -17.5330
  44   2.0000      -0.635066       -17.2810
  45   2.0000      -0.626553       -17.0494
  46   2.0000      -0.613144       -16.6845
  47   2.0000      -0.598692       -16.2912
  48   2.0000      -0.578279       -15.7358
  49   2.0000      -0.569784       -15.5046
  50   2.0000      -0.549868       -14.9627
  51   2.0000      -0.533589       -14.5197
  52   2.0000      -0.525071       -14.2879
  53   2.0000      -0.509388       -13.8612
  54   2.0000      -0.505900       -13.7662
  55   2.0000      -0.493778       -13.4364
  56   2.0000      -0.489619       -13.3232
  57   2.0000      -0.474690       -12.9170
  58   2.0000      -0.469281       -12.7698
  59   2.0000      -0.459387       -12.5006
  60   2.0000      -0.457659       -12.4535
  61   2.0000      -0.454154       -12.3581
  62   2.0000      -0.445334       -12.1182
  63   2.0000      -0.440132       -11.9766
  64   2.0000      -0.433376       -11.7928
  65   2.0000      -0.432890       -11.7795
  66   2.0000      -0.431251       -11.7349
  67   2.0000      -0.428743       -11.6667
  68   2.0000      -0.419186       -11.4066
  69   2.0000      -0.413956       -11.2643
  70   2.0000      -0.402185       -10.9440
  71   2.0000      -0.395650       -10.7662
  72   2.0000      -0.389703       -10.6044
  73   2.0000      -0.386386       -10.5141
  74   2.0000      -0.374591       -10.1931
  75   2.0000      -0.359974        -9.7954
  76   2.0000      -0.355644        -9.6776
  77   2.0000      -0.349220        -9.5028
  78   2.0000      -0.347924        -9.4675
  79   2.0000      -0.345109        -9.3909
  80   2.0000      -0.337737        -9.1903
  81   2.0000      -0.335986        -9.1426
  82   2.0000      -0.322427        -8.7737
  83   2.0000      -0.300500        -8.1770
  84   2.0000      -0.288938        -7.8624
  85   2.0000      -0.272353        -7.4111
  86   2.0000      -0.271093        -7.3768
  87   2.0000      -0.257235        -6.9997
  88   2.0000      -0.256091        -6.9686
  89   2.0000      -0.237625        -6.4661
  90   2.0000      -0.200700        -5.4613
  91   0.0000      -0.071930        -1.9573
  92   0.0000      -0.033102        -0.9008
  93   0.0000      -0.012082        -0.3288
  94   0.0000      -0.010800        -0.2939
  95   0.0000      -0.002563        -0.0697

MULLIKEN ATOMIC CHARGES
-----------------------
   0 O :   -1.010786
   1 N :    0.271987
   2 C :    0.464423
   3 C :    0.208634
   4 C :   -0.518275
   5 C :    1.624859
   6 C :   -0.703403
   7 C :   -0.467798
   8 C :   -0.205203
   9 C :   -0.471391
  10 C :   -0.528514
  11 N :   -0.776700
  12 C :   -0.357710
  13 N :   -0.405034
  14 C :    0.961787
  15 C :   -0.623896
  16 C :   -0.364799
  17 C :   -0.366432
  18 C :   -0.583831
  19 C :   -0.056654
  20 C :    1.402058
  21 C :   -0.241828
  22 C :   -0.115404
  23 C :   -0.243260
  24 C :   -0.261666
  25 C :   -0.373795
  26 H :    0.053058
  27 H :    0.119157
  28 H :    0.140131
  29 H :    0.265705
  30 H :    0.254903
  31 H :    0.245363
  32 H :    0.133792
  33 H :    0.025812
  34 H :    0.186623
  35 H :    0.246269
  36 H :    0.255704
  37 H :    0.223102
  38 H :    0.369236
  39 H :    0.144758
  40 H :    0.156442
  41 H :    0.167212
  42 H :    0.149976
  43 H :    0.166341
  44 H :    0.151011
  45 H :    0.148986
  46 H :    0.139051
Sum of atomic charges:    0.0000000

LOEWDIN ATOMIC CHARGES
----------------------
   0 O :    0.267664
   1 N :   -0.300277
   2 C :   -0.511394
   3 C :   -0.040616
   4 C :   -0.062824
   5 C :   -0.425367
   6 C :   -0.080655
   7 C :   -0.133732
   8 C :   -0.146515
   9 C :   -0.132537
  10 C :   -0.072543
  11 N :    0.355862
  12 C :   -0.495736
  13 N :    0.366253
  14 C :   -0.476904
  15 C :   -0.074354
  16 C :   -0.151567
  17 C :   -0.161090
  18 C :   -0.150728
  19 C :   -0.066100
  20 C :   -0.240392
  21 C :   -0.353355
  22 C :   -0.164186
  23 C :   -0.264226
  24 C :   -0.267149
  25 C :   -0.167844
  26 H :    0.210897
  27 H :    0.221066
  28 H :    0.193190
  29 H :    0.172687
  30 H :    0.171405
  31 H :    0.173259
  32 H :    0.196044
  33 H :    0.185175
  34 H :    0.189565
  35 H :    0.173578
  36 H :    0.167940
  37 H :    0.174086
  38 H :    0.192636
  39 H :    0.208804
  40 H :    0.201943
  41 H :    0.166965
  42 H :    0.190466
  43 H :    0.166396
  44 H :    0.191167
  45 H :    0.198467
  46 H :    0.204577

  Mayer bond orders larger than 0.100000
B(  0-O ,  1-N ) :   0.4163 B(  0-O ,  2-C ) :   0.2065 B(  0-O ,  3-C ) :  -0.1212
B(  0-O , 21-C ) :   0.1755 B(  1-N ,  2-C ) :   1.3374 B(  1-N ,  4-C ) :   0.1100
B(  1-N , 11-N ) :  -0.2283 B(  1-N , 12-C ) :   0.1897 B(  1-N , 21-C ) :   0.8416
B(  2-C ,  3-C ) :  -0.8206 B(  2-C ,  4-C ) :   0.1290 B(  2-C , 10-C ) :   0.2702
B(  2-C , 11-N ) :   1.3210 B(  2-C , 12-C ) :  -0.6404 B(  2-C , 20-C ) :   0.2438
B(  2-C , 21-C ) :  -0.3300 B(  2-C , 26-H ) :  -0.2161 B(  3-C ,  4-C ) :   1.0417
B(  3-C ,  6-C ) :   0.1752 B(  3-C ,  9-C ) :  -0.1146 B(  3-C , 10-C ) :  -0.1130
B(  3-C , 12-C ) :   0.2016 B(  3-C , 21-C ) :   0.2081 B(  3-C , 26-H ) :   1.3008
B(  4-C ,  6-C ) :   0.1875 B(  4-C ,  8-C ) :   0.1173 B(  4-C , 27-H ) :   1.2307
B(  5-C ,  6-C ) :   0.4881 B(  5-C ,  7-C ) :  -0.1042 B(  5-C ,  8-C ) :  -0.1066
B(  5-C ,  9-C ) :  -0.2083 B(  5-C , 10-C ) :   0.7681 B(  5-C , 27-H ) :  -0.1717
B(  6-C ,  7-C ) :   1.3384 B(  6-C ,  9-C ) :   0.1129 B(  6-C , 28-H ) :   1.0986
B(  7-C ,  8-C ) :   1.2314 B(  7-C ,  9-C ) :   0.1052 B(  7-C , 29-H ) :   0.8906
B(  8-C ,  9-C ) :   1.2231 B(  8-C , 30-H ) :   0.8972 B(  9-C , 10-C ) :   1.3856
B(  9-C , 31-H ) :   0.9104 B( 10-C , 32-H ) :   1.0595 B( 11-N , 12-C ) :   0.2789
B( 11-N , 13-N ) :  -0.2612 B( 11-N , 14-C ) :   0.1385 B( 11-N , 19-C ) :  -0.1043
B( 11-N , 21-C ) :   0.1064 B( 12-C , 13-N ) :   0.8159 B( 12-C , 17-C ) :   0.1352
B( 12-C , 19-C ) :   0.1060 B( 12-C , 20-C ) :  -1.0976 B( 12-C , 21-C ) :   0.9046
B( 13-N , 14-C ) :   0.5807 B( 13-N , 15-C ) :   0.1875 B( 13-N , 19-C ) :  -0.3087
B( 13-N , 20-C ) :  -0.1515 B( 13-N , 21-C ) :   0.1553 B( 13-N , 33-H ) :   1.2118
B( 14-C , 15-C ) :   0.7368 B( 14-C , 18-C ) :  -0.2006 B( 14-C , 19-C ) :   0.9225
B( 14-C , 20-C ) :   0.1666 B( 14-C , 21-C ) :  -0.1248 B( 15-C , 16-C ) :   1.2681
B( 15-C , 17-C ) :   0.1014 B( 15-C , 34-H ) :   0.9802 B( 16-C , 17-C ) :   1.2106
B( 16-C , 35-H ) :   0.9204 B( 17-C , 18-C ) :   1.3297 B( 17-C , 36-H ) :   0.8961
B( 18-C , 19-C ) :   1.1528 B( 18-C , 37-H ) :   0.9552 B( 19-C , 38-H ) :   0.8024
B( 20-C , 21-C ) :   0.5915 B( 20-C , 25-C ) :   1.0385 B( 21-C , 22-C ) :   0.7544
B( 21-C , 25-C ) :  -0.1240 B( 22-C , 23-C ) :   0.8849 B( 22-C , 39-H ) :   0.9890
B( 22-C , 40-H ) :   0.9641 B( 23-C , 24-C ) :   0.9071 B( 23-C , 41-H ) :   0.9896
B( 23-C , 42-H ) :   0.9971 B( 24-C , 25-C ) :   0.8773 B( 24-C , 43-H ) :   0.9932
B( 24-C , 44-H ) :   1.0011 B( 25-C , 45-H ) :   0.9768 B( 25-C , 46-H ) :   1.0126

-----------------------------------------------------------------------------
         ABSORPTION SPECTRUM VIA TRANSITION ELECTRIC DIPOLE MOMENTS
-----------------------------------------------------------------------------
State   Energy    Wavelength  fosc         T2        TX        TY        TZ
        (cm-1)      (nm)                 (au**2)    (au)      (au)      (au)
-----------------------------------------------------------------------------
   1   23468.5    426.1   0.348113754   4.88328  -1.80538  -1.27341   0.04810
   2   30553.4    327.3   0.018228727   0.19641  -0.43913   0.03892   0.04546
   3   31007.6    322.5   0.514151129   5.45881  -2.32818   0.18896  -0.05161
   4   32735.7    305.5   0.777587730   7.81994   1.00032   2.60698  -0.15143
   5   34913.6    286.4   0.394675698   3.72153   1.83744  -0.57601   0.11642
   6   35776.8    279.5   0.108660135   0.99987  -0.32818   0.94454  -0.00369
   7   35841.1    279.0   0.020320394   0.18665   0.21470  -0.36911  -0.06565
   8   37383.5    267.5   0.255790405   2.25258  -0.48231   1.42076  -0.03729
   9   37956.9    263.5   0.001001425   0.00869  -0.04095  -0.03186   0.07742
  10   38243.4    261.5   0.035592045   0.30639   0.05305   0.53548  -0.12976

FINAL SINGLE POINT ENERGY     -1089.464854463789

DIPOLE MOMENT
-------------
                                X             Y             Z
Electronic contribution:      6.12982       4.53947       0.11356
Nuclear contribution   :     -8.67027      -4.20021      -0.35029
                        -----------------------------------------
Total Dipole Moment    :     -2.54046       0.33926      -0.23673
                        -----------------------------------------
Magnitude (a.u.)       :      2.57392
Magnitude (Debye)      :      6.54238

Rotational constants in cm-1:     0.007385     0.004459     0.002796
Rotational constants in MHz :   221.393715   133.665468    83.821418

                             ****ORCA TERMINATED NORMALLY****
TOTAL RUN TIME: 0 days 9 hours 4 minutes 45 seconds 687 msec
