                         Program Version 5.0.2 -  RELEASE  -
|  1> ! wb97x-d3 aug-cc-PVTZ RIJCOSX Opt
|  2> %maxcore 4000
|  3> %basis
|  4>  AuxJ "aug-cc-PVTZ/JK"
|  5>  AuxC "aug-cc-PVTZ/C"
|  6>  newGTO H "cc-PVTZ" end
|  7>  newAuxJGTO H "cc-PVTZ/JK" end
|  8>  newAuxCGTO H "cc-PVTZ/C" end
|  9> end
| 10> %cpcm
| 11>  SMD true
| 12>  SMDsolvent "dichloromethane"
| 13> end
| 14> %pal nprocs 4 end
| 15> * xyz 0 1
| 16> O          1.37360       -3.19720        0.27300
| 17> N          0.43480       -2.34810        0.16420
| 18> C          0.68430       -1.00440        0.07990
| 19> C          2.06010       -0.58820        0.10840
| 20> C          2.45480        0.68660       -0.04490
| 21> C          3.81500        1.17730       -0.01470
| 22> C          4.03890        2.54900       -0.17530
| 23> C          5.31730        3.06950       -0.14920
| 24> C          6.40480        2.23130        0.03690
| 25> C          6.20080        0.86930        0.19610
| 26> C          4.92380        0.34560        0.17150
| 27> N         -0.28860       -0.11830       -0.00780
| 28> C         -1.55630       -0.49690       -0.04370
| 29> N         -2.54310        0.44490       -0.11120
| 30> C         -2.47310        1.83250       -0.12240
| 31> C         -3.65380        2.53130       -0.38160
| 32> C         -3.66330        3.91180       -0.39780
| 33> C         -2.49840        4.62010       -0.15350
| 34> C         -1.32800        3.93050        0.11450
| 35> C         -1.30690        2.54860        0.13460
| 36> C         -1.89660       -1.87410       -0.01220
| 37> C         -0.86350       -2.77240        0.12310
| 38> C         -1.05330       -4.24890        0.24110
| 39> C         -2.49650       -4.60850        0.56160
| 40> C         -3.42190       -3.84490       -0.37670
| 41> C         -3.32360       -2.34580       -0.10360
| 42> H          2.75490       -1.40150        0.25770
| 43> H          1.69090        1.43460       -0.21110
| 44> H          3.19350        3.20660       -0.32130
| 45> H          5.46950        4.13190       -0.27410
| 46> H          7.40580        2.63640        0.05730
| 47> H          7.04650        0.21260        0.34060
| 48> H          4.78350       -0.71650        0.29630
| 49> H         -3.47930        0.08000       -0.20720
| 50> H         -4.56780        1.98400       -0.57170
| 51> H         -4.58500        4.43650       -0.60230
| 52> H         -2.50570        5.69930       -0.16860
| 53> H         -0.41720        4.47550        0.31530
| 54> H         -0.40160        2.00990        0.35070
| 55> H         -0.73870       -4.71330       -0.69920
| 56> H         -0.36190       -4.61450        1.00560
| 57> H         -2.64230       -5.68350        0.45150
| 58> H         -2.72490       -4.34050        1.59530
| 59> H         -4.45570       -4.16960       -0.24700
| 60> H         -3.13190       -4.04740       -1.40980
| 61> H         -3.83910       -1.80770       -0.90550
| 62> H         -3.83470       -2.11390        0.83780
| 63> *
| 64>
| 65>
| 66> $new_job
| 67> ! wb97x-d3 aug-cc-PVTZ RIJCOSX SP
| 68> %maxcore 4000
| 69> %basis
| 70>  AuxJ "aug-cc-PVTZ/JK"
| 71>  AuxC "aug-cc-PVTZ/C"
| 72>  newGTO H "cc-PVTZ" end
| 73>  newAuxJGTO H "cc-PVTZ/JK" end
| 74>  newAuxCGTO H "cc-PVTZ/C" end
| 75> end
| 76> %cpcm
| 77>  SMD true
| 78>  SMDsolvent "dichloromethane"
| 79> end
| 80> %pal nprocs 4 end
| 81> %tddft
| 82>  nroots 10
| 83>  maxdim 7
| 84> end
| 85> * xyzfile 0 1
| 86>
| 87>                          ****END OF INPUT****
 Total Charge           Charge          ....    0
 Multiplicity           Mult            ....    1
 Number of Electrons    NEL             ....  182
Dispersion correction           -0.020380347
FINAL SINGLE POINT ENERGY     -1090.531651805532
Dispersion correction            ... done
Dispersion correction           -0.020206602
FINAL SINGLE POINT ENERGY     -1090.533863626870
Dispersion correction            ... done
Dispersion correction           -0.020265492
FINAL SINGLE POINT ENERGY     -1090.534444682911
Dispersion correction            ... done
FINAL SINGLE POINT ENERGY     -1090.534569152513
FINAL SINGLE POINT ENERGY     -1090.534596247394
FINAL SINGLE POINT ENERGY     -1090.534613382599
FINAL SINGLE POINT ENERGY     -1090.534619530922
FINAL SINGLE POINT ENERGY     -1090.534621887805
FINAL SINGLE POINT ENERGY     -1090.534633328800
FINAL SINGLE POINT ENERGY     -1090.534640596648
FINAL SINGLE POINT ENERGY     -1090.534630860653
FINAL SINGLE POINT ENERGY     -1090.534674628637
FINAL SINGLE POINT ENERGY     -1090.534554950318
FINAL SINGLE POINT ENERGY     -1090.534692663817
FINAL SINGLE POINT ENERGY     -1090.534700873497
FINAL SINGLE POINT ENERGY     -1090.534707632122
Dispersion correction           -0.020396528
FINAL SINGLE POINT ENERGY     -1090.534708110750
Dispersion correction            ... done
Dispersion correction           -0.020392269
FINAL SINGLE POINT ENERGY     -1090.534710892836
Dispersion correction            ... done
                    ***********************HURRAY********************
Dispersion correction           -0.020394201
FINAL SINGLE POINT ENERGY     -1090.534715766908

CARTESIAN COORDINATES (ANGSTROEM)
---------------------------------
  O      1.383569   -3.235889    0.273850
  N      0.421345   -2.365574    0.163527
  C      0.675325   -1.041219    0.057843
  C      2.071962   -0.619809    0.047042
  C      2.424416    0.665743   -0.022588
  C      3.792181    1.193808   -0.040848
  C      3.966033    2.578332   -0.056838
  C      5.234269    3.138815   -0.067489
  C      6.352763    2.319433   -0.064154
  C      6.194067    0.938161   -0.053015
  C      4.928417    0.379456   -0.042882
  N     -0.294728   -0.145144   -0.028769
  C     -1.556768   -0.528568   -0.032643
  N     -2.542246    0.416780   -0.092514
  C     -2.424749    1.816072   -0.106867
  C     -3.429499    2.534852   -0.755488
  C     -3.407332    3.918824   -0.767949
  C     -2.379316    4.609259   -0.140743
  C     -1.384963    3.895321    0.511112
  C     -1.402429    2.508714    0.540034
  C     -1.908390   -1.898138    0.016380
  C     -0.881528   -2.797396    0.151099
  C     -1.083632   -4.268535    0.303051
  C     -2.533395   -4.627109    0.601077
  C     -3.478090   -3.848776   -0.300923
  C     -3.342970   -2.350510   -0.056333
  H      2.795712   -1.418887    0.103770
  H      1.638486    1.412785   -0.070270
  H      3.091328    3.218229   -0.059189
  H      5.347966    4.215429   -0.078508
  H      7.345097    2.752146   -0.072029
  H      7.064756    0.294611   -0.053565
  H      4.825748   -0.698354   -0.038890
  H     -3.469635    0.073813   -0.277021
  H     -4.228816    1.998833   -1.253806
  H     -4.196094    4.457505   -1.277893
  H     -2.356283    5.691120   -0.157034
  H     -0.582117    4.419270    1.014857
  H     -0.628365    1.970669    1.063131
  H     -0.739541   -4.752984   -0.615807
  H     -0.410552   -4.619277    1.085256
  H     -2.672259   -5.700916    0.473209
  H     -2.759294   -4.397698    1.646479
  H     -4.512729   -4.149995   -0.133924
  H     -3.244097   -4.069706   -1.346355
  H     -3.851670   -1.810795   -0.859618
  H     -3.851851   -2.073201    0.872839

 Multiplicity           Mult            ....    1
 Number of Electrons    NEL             ....  182
 Basis Dimension        Dim             .... 1490

ORBITAL ENERGIES
----------------

  NO   OCC          E(Eh)            E(eV)
   0   2.0000     -19.186438      -522.0895
   1   2.0000     -14.549507      -395.9122
   2   2.0000     -14.459173      -393.4541
   3   2.0000     -14.425061      -392.5259
   4   2.0000     -10.372126      -282.2399
   5   2.0000     -10.363596      -282.0078
   6   2.0000     -10.340361      -281.3755
   7   2.0000     -10.331538      -281.1354
   8   2.0000     -10.302300      -280.3398
   9   2.0000     -10.295368      -280.1512
  10   2.0000     -10.293411      -280.0980
  11   2.0000     -10.285012      -279.8694
  12   2.0000     -10.283002      -279.8147
  13   2.0000     -10.282961      -279.8136
  14   2.0000     -10.282915      -279.8124
  15   2.0000     -10.282902      -279.8120
  16   2.0000     -10.282634      -279.8047
  17   2.0000     -10.281945      -279.7860
  18   2.0000     -10.281747      -279.7806
  19   2.0000     -10.281459      -279.7727
  20   2.0000     -10.281104      -279.7631
  21   2.0000     -10.278754      -279.6991
  22   2.0000     -10.278185      -279.6836
  23   2.0000     -10.276151      -279.6283
  24   2.0000     -10.271664      -279.5062
  25   2.0000     -10.270375      -279.4711
  26   2.0000      -1.210090       -32.9282
  27   2.0000      -1.113574       -30.3019
  28   2.0000      -1.056125       -28.7386
  29   2.0000      -0.988405       -26.8959
  30   2.0000      -0.983758       -26.7694
  31   2.0000      -0.975687       -26.5498
  32   2.0000      -0.936743       -25.4901
  33   2.0000      -0.925687       -25.1892
  34   2.0000      -0.895108       -24.3571
  35   2.0000      -0.881256       -23.9802
  36   2.0000      -0.866864       -23.5886
  37   2.0000      -0.866294       -23.5731
  38   2.0000      -0.855719       -23.2853
  39   2.0000      -0.845727       -23.0134
  40   2.0000      -0.783541       -21.3212
  41   2.0000      -0.780270       -21.2322
  42   2.0000      -0.743488       -20.2313
  43   2.0000      -0.734002       -19.9732
  44   2.0000      -0.724587       -19.7170
  45   2.0000      -0.716520       -19.4975
  46   2.0000      -0.703855       -19.1529
  47   2.0000      -0.688468       -18.7342
  48   2.0000      -0.666591       -18.1389
  49   2.0000      -0.659423       -17.9438
  50   2.0000      -0.637907       -17.3583
  51   2.0000      -0.622936       -16.9510
  52   2.0000      -0.613540       -16.6953
  53   2.0000      -0.599342       -16.3089
  54   2.0000      -0.589621       -16.0444
  55   2.0000      -0.578882       -15.7522
  56   2.0000      -0.573327       -15.6010
  57   2.0000      -0.560955       -15.2644
  58   2.0000      -0.555286       -15.1101
  59   2.0000      -0.550973       -14.9927
  60   2.0000      -0.543048       -14.7771
  61   2.0000      -0.538292       -14.6477
  62   2.0000      -0.531006       -14.4494
  63   2.0000      -0.524873       -14.2825
  64   2.0000      -0.519316       -14.1313
  65   2.0000      -0.517645       -14.0858
  66   2.0000      -0.512204       -13.9378
  67   2.0000      -0.509706       -13.8698
  68   2.0000      -0.501663       -13.6509
  69   2.0000      -0.496491       -13.5102
  70   2.0000      -0.490536       -13.3482
  71   2.0000      -0.480805       -13.0834
  72   2.0000      -0.476391       -12.9633
  73   2.0000      -0.469137       -12.7659
  74   2.0000      -0.455770       -12.4021
  75   2.0000      -0.440782       -11.9943
  76   2.0000      -0.438814       -11.9407
  77   2.0000      -0.430757       -11.7215
  78   2.0000      -0.428750       -11.6669
  79   2.0000      -0.424979       -11.5643
  80   2.0000      -0.419326       -11.4104
  81   2.0000      -0.416127       -11.3234
  82   2.0000      -0.400328       -10.8935
  83   2.0000      -0.382911       -10.4195
  84   2.0000      -0.363669        -9.8959
  85   2.0000      -0.345659        -9.4059
  86   2.0000      -0.345551        -9.4029
  87   2.0000      -0.334526        -9.1029
  88   2.0000      -0.330406        -8.9908
  89   2.0000      -0.309061        -8.4100
  90   2.0000      -0.268764        -7.3135
  91   0.0000      -0.004295        -0.1169
  92   0.0000       0.034164         0.9296
  93   0.0000       0.048128         1.3096
  94   0.0000       0.050394         1.3713
  95   0.0000       0.053316         1.4508

MULLIKEN ATOMIC CHARGES
-----------------------
   0 O :   -0.940190
   1 N :    0.037759
   2 C :    0.987751
   3 C :    0.202873
   4 C :   -0.736919
   5 C :    2.014205
   6 C :   -0.757958
   7 C :   -0.526193
   8 C :   -0.136541
   9 C :   -0.523178
  10 C :   -0.535020
  11 N :   -0.621876
  12 C :   -1.014684
  13 N :   -0.266485
  14 C :    1.008435
  15 C :   -0.637497
  16 C :   -0.287938
  17 C :   -0.298257
  18 C :   -0.551115
  19 C :   -0.340614
  20 C :    1.918464
  21 C :   -0.374123
  22 C :   -0.209440
  23 C :   -0.282410
  24 C :   -0.289151
  25 C :   -0.548326
  26 H :    0.013044
  27 H :    0.075164
  28 H :    0.105085
  29 H :    0.260187
  30 H :    0.240137
  31 H :    0.240795
  32 H :    0.094917
  33 H :    0.064131
  34 H :    0.175072
  35 H :    0.246105
  36 H :    0.236199
  37 H :    0.220137
  38 H :    0.297209
  39 H :    0.176515
  40 H :    0.180132
  41 H :    0.189581
  42 H :    0.172970
  43 H :    0.189544
  44 H :    0.175021
  45 H :    0.177948
  46 H :    0.178534
Sum of atomic charges:   -0.0000000

LOEWDIN ATOMIC CHARGES
----------------------
   0 O :    0.241121
   1 N :   -0.300051
   2 C :   -0.504846
   3 C :   -0.036397
   4 C :   -0.061994
   5 C :   -0.421315
   6 C :   -0.080707
   7 C :   -0.131890
   8 C :   -0.145713
   9 C :   -0.130617
  10 C :   -0.072744
  11 N :    0.355865
  12 C :   -0.496299
  13 N :    0.364946
  14 C :   -0.481090
  15 C :   -0.067376
  16 C :   -0.145826
  17 C :   -0.157279
  18 C :   -0.143714
  19 C :   -0.071080
  20 C :   -0.237479
  21 C :   -0.348756
  22 C :   -0.157671
  23 C :   -0.259443
  24 C :   -0.263021
  25 C :   -0.161061
  26 H :    0.208073
  27 H :    0.222202
  28 H :    0.192424
  29 H :    0.171082
  30 H :    0.170163
  31 H :    0.171648
  32 H :    0.195184
  33 H :    0.179229
  34 H :    0.188027
  35 H :    0.172076
  36 H :    0.167640
  37 H :    0.173129
  38 H :    0.198943
  39 H :    0.205652
  40 H :    0.198413
  41 H :    0.164183
  42 H :    0.187976
  43 H :    0.163671
  44 H :    0.188417
  45 H :    0.194958
  46 H :    0.201349

  Mayer bond orders larger than 0.100000
B(  0-O ,  1-N ) :   0.6312 B(  0-O ,  2-C ) :   0.1252 B(  0-O ,  3-C ) :  -0.1003
B(  1-N ,  2-C ) :   1.2690 B(  1-N ,  4-C ) :   0.1433 B(  1-N , 12-C ) :   0.1956
B(  1-N , 20-C ) :  -0.2006 B(  1-N , 21-C ) :   0.8517 B(  1-N , 22-C ) :   0.1200
B(  2-C ,  3-C ) :  -1.2025 B(  2-C ,  4-C ) :   0.1811 B(  2-C ,  5-C ) :   0.1040
B(  2-C ,  6-C ) :  -0.1972 B(  2-C , 10-C ) :   0.2853 B(  2-C , 11-N ) :   0.8558
B(  2-C , 12-C ) :  -1.1779 B(  2-C , 19-C ) :  -0.1060 B(  2-C , 20-C ) :   0.5494
B(  2-C , 21-C ) :  -0.5884 B(  2-C , 22-C ) :   0.1015 B(  2-C , 26-H ) :  -0.4255
B(  2-C , 27-H ) :  -0.2018 B(  3-C ,  4-C ) :   0.8650 B(  3-C ,  6-C ) :   0.2278
B(  3-C ,  9-C ) :  -0.1069 B(  3-C , 12-C ) :   0.1678 B(  3-C , 21-C ) :   0.2606
B(  3-C , 26-H ) :   1.4499 B(  4-C ,  5-C ) :  -0.1224 B(  4-C ,  6-C ) :   0.3934
B(  4-C ,  8-C ) :   0.1116 B(  4-C ,  9-C ) :   0.1267 B(  4-C , 26-H ) :  -0.1432
B(  4-C , 27-H ) :   1.3673 B(  5-C ,  7-C ) :  -0.1163 B(  5-C ,  9-C ) :  -0.2258
B(  5-C , 10-C ) :   0.5291 B(  5-C , 11-N ) :   0.1014 B(  5-C , 27-H ) :  -0.2362
B(  5-C , 28-H ) :  -0.2429 B(  5-C , 32-H ) :  -0.1358 B(  6-C ,  7-C ) :   1.1697
B(  6-C ,  9-C ) :   0.1127 B(  6-C , 28-H ) :   1.2383 B(  7-C ,  8-C ) :   1.1363
B(  7-C ,  9-C ) :   0.1773 B(  7-C , 29-H ) :   0.9326 B(  8-C ,  9-C ) :   1.1178
B(  8-C , 30-H ) :   0.9508 B(  9-C , 10-C ) :   1.1593 B(  9-C , 31-H ) :   0.9573
B( 10-C , 12-C ) :  -0.1511 B( 10-C , 32-H ) :   1.1973 B( 11-N , 12-C ) :   0.5459
B( 11-N , 13-N ) :  -0.2422 B( 11-N , 21-C ) :   0.1983 B( 12-C , 13-N ) :   0.7085
B( 12-C , 19-C ) :   0.3404 B( 12-C , 20-C ) :  -1.9732 B( 12-C , 21-C ) :   1.6085
B( 13-N , 14-C ) :   0.6410 B( 13-N , 19-C ) :  -0.3349 B( 13-N , 20-C ) :  -0.1427
B( 13-N , 21-C ) :   0.1162 B( 13-N , 25-C ) :   0.1217 B( 13-N , 33-H ) :   1.1754
B( 14-C , 15-C ) :   0.7140 B( 14-C , 18-C ) :  -0.1421 B( 14-C , 19-C ) :   0.8388
B( 14-C , 20-C ) :   0.1387 B( 14-C , 21-C ) :  -0.1357 B( 15-C , 16-C ) :   1.1365
B( 15-C , 19-C ) :   0.1175 B( 15-C , 34-H ) :   1.0758 B( 16-C , 17-C ) :   1.1286
B( 16-C , 35-H ) :   0.9575 B( 17-C , 18-C ) :   1.1813 B( 17-C , 36-H ) :   0.9701
B( 18-C , 19-C ) :   0.9992 B( 18-C , 37-H ) :   1.0094 B( 19-C , 38-H ) :   0.9004
B( 20-C , 21-C ) :   0.1746 B( 20-C , 25-C ) :   0.6524 B( 21-C , 22-C ) :   0.5187
B( 22-C , 23-C ) :   0.7854 B( 22-C , 39-H ) :   1.0423 B( 22-C , 40-H ) :   0.9971
B( 23-C , 24-C ) :   0.7747 B( 23-C , 25-C ) :   0.1057 B( 23-C , 41-H ) :   1.0061
B( 23-C , 42-H ) :   1.0274 B( 24-C , 25-C ) :   0.7511 B( 24-C , 43-H ) :   1.0110
B( 24-C , 44-H ) :   1.0367 B( 25-C , 45-H ) :   1.0194 B( 25-C , 46-H ) :   1.0763

-----------------------------------------------------------------------------
         ABSORPTION SPECTRUM VIA TRANSITION ELECTRIC DIPOLE MOMENTS
-----------------------------------------------------------------------------
State   Energy    Wavelength  fosc         T2        TX        TY        TZ
        (cm-1)      (nm)                 (au**2)    (au)      (au)      (au)
-----------------------------------------------------------------------------
   1   28557.9    350.2   0.483281975   5.57122   1.84986   1.46353  -0.08552
   2   35582.7    281.0   0.719771836   6.65934   0.11956  -2.57457   0.12894
   3   36156.1    276.6   0.035100321   0.31960   0.54091   0.14894  -0.06954
   4   36795.2    271.8   0.751237068   6.72142  -2.58663   0.17162  -0.03622
   5   40911.7    244.4   0.012366160   0.09951   0.29513  -0.11128  -0.00510
   6   41121.3    243.2   0.043024653   0.34445   0.48454  -0.08169   0.32094
   7   42377.9    236.0   0.004383537   0.03405  -0.08891  -0.16002   0.02329
   8   43076.8    232.1   0.027636814   0.21121   0.00034   0.33039   0.31946
   9   44324.7    225.6   0.179328756   1.33192   0.00747   1.14786  -0.11950
  10   44935.0    222.5   0.114351583   0.83779  -0.85356  -0.33009   0.01603

Dispersion correction           -0.020394201
FINAL SINGLE POINT ENERGY     -1090.404596189187

DIPOLE MOMENT
-------------
                                X             Y             Z
Electronic contribution:      5.81860       4.76542      -0.12249
Nuclear contribution   :     -8.50394      -4.08288      -0.11770
                        -----------------------------------------
Total Dipole Moment    :     -2.68533       0.68254      -0.24020
                        -----------------------------------------
Magnitude (a.u.)       :      2.78111
Magnitude (Debye)      :      7.06902

Rotational constants in cm-1:     0.007524     0.004515     0.002857
Rotational constants in MHz :   225.568070   135.341391    85.653750

                             ****ORCA TERMINATED NORMALLY****
TOTAL RUN TIME: 0 days 18 hours 56 minutes 50 seconds 370 msec
