                         Program Version 5.0.2 -  RELEASE  -
|  1> ! x3lyp aug-cc-PVTZ RIJCOSX Opt
|  2> %maxcore 4000
|  3> %basis
|  4>  AuxJ "aug-cc-PVTZ/JK"
|  5>  AuxC "aug-cc-PVTZ/C"
|  6>  newGTO H "cc-PVTZ" end
|  7>  newAuxJGTO H "cc-PVTZ/JK" end
|  8>  newAuxCGTO H "cc-PVTZ/C" end
|  9> end
| 10> %cpcm
| 11>  SMD true
| 12>  SMDsolvent "dichloromethane"
| 13> end
| 14> %pal nprocs 4 end
| 15> * xyz 0 1
| 16> O          1.37360       -3.19720        0.27300
| 17> N          0.43480       -2.34810        0.16420
| 18> C          0.68430       -1.00440        0.07990
| 19> C          2.06010       -0.58820        0.10840
| 20> C          2.45480        0.68660       -0.04490
| 21> C          3.81500        1.17730       -0.01470
| 22> C          4.03890        2.54900       -0.17530
| 23> C          5.31730        3.06950       -0.14920
| 24> C          6.40480        2.23130        0.03690
| 25> C          6.20080        0.86930        0.19610
| 26> C          4.92380        0.34560        0.17150
| 27> N         -0.28860       -0.11830       -0.00780
| 28> C         -1.55630       -0.49690       -0.04370
| 29> N         -2.54310        0.44490       -0.11120
| 30> C         -2.47310        1.83250       -0.12240
| 31> C         -3.65380        2.53130       -0.38160
| 32> C         -3.66330        3.91180       -0.39780
| 33> C         -2.49840        4.62010       -0.15350
| 34> C         -1.32800        3.93050        0.11450
| 35> C         -1.30690        2.54860        0.13460
| 36> C         -1.89660       -1.87410       -0.01220
| 37> C         -0.86350       -2.77240        0.12310
| 38> C         -1.05330       -4.24890        0.24110
| 39> C         -2.49650       -4.60850        0.56160
| 40> C         -3.42190       -3.84490       -0.37670
| 41> C         -3.32360       -2.34580       -0.10360
| 42> H          2.75490       -1.40150        0.25770
| 43> H          1.69090        1.43460       -0.21110
| 44> H          3.19350        3.20660       -0.32130
| 45> H          5.46950        4.13190       -0.27410
| 46> H          7.40580        2.63640        0.05730
| 47> H          7.04650        0.21260        0.34060
| 48> H          4.78350       -0.71650        0.29630
| 49> H         -3.47930        0.08000       -0.20720
| 50> H         -4.56780        1.98400       -0.57170
| 51> H         -4.58500        4.43650       -0.60230
| 52> H         -2.50570        5.69930       -0.16860
| 53> H         -0.41720        4.47550        0.31530
| 54> H         -0.40160        2.00990        0.35070
| 55> H         -0.73870       -4.71330       -0.69920
| 56> H         -0.36190       -4.61450        1.00560
| 57> H         -2.64230       -5.68350        0.45150
| 58> H         -2.72490       -4.34050        1.59530
| 59> H         -4.45570       -4.16960       -0.24700
| 60> H         -3.13190       -4.04740       -1.40980
| 61> H         -3.83910       -1.80770       -0.90550
| 62> H         -3.83470       -2.11390        0.83780
| 63> *
| 64>
| 65>
| 66> $new_job
| 67> ! x3lyp aug-cc-PVTZ RIJCOSX SP
| 68> %maxcore 4000
| 69> %basis
| 70>  AuxJ "aug-cc-PVTZ/JK"
| 71>  AuxC "aug-cc-PVTZ/C"
| 72>  newGTO H "cc-PVTZ" end
| 73>  newAuxJGTO H "cc-PVTZ/JK" end
| 74>  newAuxCGTO H "cc-PVTZ/C" end
| 75> end
| 76> %cpcm
| 77>  SMD true
| 78>  SMDsolvent "dichloromethane"
| 79> end
| 80> %pal nprocs 4 end
| 81> %tddft
| 82>  nroots 10
| 83>  maxdim 7
| 84> end
| 85> * xyzfile 0 1
| 86>
| 87>                          ****END OF INPUT****
 Total Charge           Charge          ....    0
 Multiplicity           Mult            ....    1
 Number of Electrons    NEL             ....  182
FINAL SINGLE POINT ENERGY     -1089.890466508433
FINAL SINGLE POINT ENERGY     -1089.893432452310
FINAL SINGLE POINT ENERGY     -1089.893952088979
FINAL SINGLE POINT ENERGY     -1089.894073944881
FINAL SINGLE POINT ENERGY     -1089.894104260372
FINAL SINGLE POINT ENERGY     -1089.894108349437
FINAL SINGLE POINT ENERGY     -1089.894103497666
FINAL SINGLE POINT ENERGY     -1089.894098674700
                    ***********************HURRAY********************
FINAL SINGLE POINT ENERGY     -1089.894099636835

CARTESIAN COORDINATES (ANGSTROEM)
---------------------------------
  O      1.409491   -3.223522    0.313305
  N      0.452168   -2.343266    0.193311
  C      0.718882   -1.005997    0.096499
  C      2.112870   -0.605847    0.108267
  C      2.517229    0.671778    0.011061
  C      3.895985    1.149972    0.012374
  C      4.124479    2.532644   -0.037684
  C      5.413816    3.048494   -0.035023
  C      6.505964    2.190229    0.014572
  C      6.296584    0.812625    0.060503
  C      5.010829    0.297268    0.059272
  N     -0.254754   -0.107218   -0.005538
  C     -1.521854   -0.487501   -0.044711
  N     -2.519578    0.449470   -0.135235
  C     -2.494220    1.849573   -0.149770
  C     -3.713053    2.488848   -0.426652
  C     -3.803298    3.870110   -0.441867
  C     -2.681052    4.653309   -0.182372
  C     -1.474714    4.024473    0.095170
  C     -1.368141    2.637158    0.114400
  C     -1.879935   -1.863346    0.000407
  C     -0.857884   -2.770995    0.155917
  C     -1.067740   -4.244851    0.295705
  C     -2.528292   -4.610758    0.549450
  C     -3.452761   -3.818460   -0.366095
  C     -3.315212   -2.318541   -0.106248
  H      2.815762   -1.418724    0.199312
  H      1.762736    1.445087   -0.074770
  H      3.276046    3.204237   -0.077018
  H      5.564873    4.119308   -0.072436
  H      7.512449    2.587092    0.015563
  H      7.142693    0.138917    0.095755
  H      4.872503   -0.774767    0.091600
  H     -3.447306    0.069217   -0.225121
  H     -4.590663    1.886893   -0.629829
  H     -4.755350    4.336455   -0.659227
  H     -2.749452    5.732517   -0.195656
  H     -0.592721    4.616039    0.304385
  H     -0.424616    2.170538    0.333283
  H     -0.698992   -4.730650   -0.613441
  H     -0.419400   -4.605074    1.094853
  H     -2.661222   -5.682946    0.400476
  H     -2.783476   -4.400038    1.591969
  H     -4.492271   -4.115728   -0.221696
  H     -3.200917   -4.031769   -1.408810
  H     -3.811070   -1.771218   -0.912508
  H     -3.845315   -2.051533    0.814898

 Multiplicity           Mult            ....    1
 Number of Electrons    NEL             ....  182
 Basis Dimension        Dim             .... 1490

ORBITAL ENERGIES
----------------

  NO   OCC          E(Eh)            E(eV)
   0   2.0000     -19.118105      -520.2301
   1   2.0000     -14.466014      -393.6403
   2   2.0000     -14.382585      -391.3700
   3   2.0000     -14.342887      -390.2898
   4   2.0000     -10.284529      -279.8563
   5   2.0000     -10.276191      -279.6294
   6   2.0000     -10.253048      -278.9996
   7   2.0000     -10.247747      -278.8554
   8   2.0000     -10.219012      -278.0735
   9   2.0000     -10.210977      -277.8548
  10   2.0000     -10.207416      -277.7579
  11   2.0000     -10.200820      -277.5784
  12   2.0000     -10.198827      -277.5242
  13   2.0000     -10.198669      -277.5199
  14   2.0000     -10.198374      -277.5119
  15   2.0000     -10.197888      -277.4986
  16   2.0000     -10.197736      -277.4945
  17   2.0000     -10.197605      -277.4909
  18   2.0000     -10.197339      -277.4837
  19   2.0000     -10.196485      -277.4605
  20   2.0000     -10.196341      -277.4566
  21   2.0000     -10.194334      -277.4019
  22   2.0000     -10.191072      -277.3132
  23   2.0000     -10.190287      -277.2918
  24   2.0000     -10.187454      -277.2147
  25   2.0000     -10.185925      -277.1731
  26   2.0000      -1.094727       -29.7890
  27   2.0000      -0.997556       -27.1449
  28   2.0000      -0.943365       -25.6703
  29   2.0000      -0.871924       -23.7263
  30   2.0000      -0.867757       -23.6129
  31   2.0000      -0.859678       -23.3930
  32   2.0000      -0.824960       -22.4483
  33   2.0000      -0.810747       -22.0615
  34   2.0000      -0.781918       -21.2771
  35   2.0000      -0.768033       -20.8992
  36   2.0000      -0.754051       -20.5188
  37   2.0000      -0.753292       -20.4981
  38   2.0000      -0.743903       -20.2426
  39   2.0000      -0.733492       -19.9593
  40   2.0000      -0.675643       -18.3852
  41   2.0000      -0.671911       -18.2836
  42   2.0000      -0.637310       -17.3421
  43   2.0000      -0.627709       -17.0808
  44   2.0000      -0.618366       -16.8266
  45   2.0000      -0.610439       -16.6109
  46   2.0000      -0.597674       -16.2635
  47   2.0000      -0.583252       -15.8711
  48   2.0000      -0.562854       -15.3160
  49   2.0000      -0.555417       -15.1137
  50   2.0000      -0.535308       -14.5665
  51   2.0000      -0.519828       -14.1452
  52   2.0000      -0.511622       -13.9219
  53   2.0000      -0.492495       -13.4015
  54   2.0000      -0.491442       -13.3728
  55   2.0000      -0.480897       -13.0859
  56   2.0000      -0.474288       -12.9060
  57   2.0000      -0.461336       -12.5536
  58   2.0000      -0.457598       -12.4519
  59   2.0000      -0.446360       -12.1461
  60   2.0000      -0.445633       -12.1263
  61   2.0000      -0.441248       -12.0070
  62   2.0000      -0.434692       -11.8286
  63   2.0000      -0.428958       -11.6725
  64   2.0000      -0.422930       -11.5085
  65   2.0000      -0.422193       -11.4884
  66   2.0000      -0.418138       -11.3781
  67   2.0000      -0.417349       -11.3566
  68   2.0000      -0.406919       -11.0728
  69   2.0000      -0.402435       -10.9508
  70   2.0000      -0.388264       -10.5652
  71   2.0000      -0.382939       -10.4203
  72   2.0000      -0.377705       -10.2779
  73   2.0000      -0.374714       -10.1965
  74   2.0000      -0.365740        -9.9523
  75   2.0000      -0.351773        -9.5722
  76   2.0000      -0.347263        -9.4495
  77   2.0000      -0.340674        -9.2702
  78   2.0000      -0.338408        -9.2086
  79   2.0000      -0.333922        -9.0865
  80   2.0000      -0.329088        -8.9549
  81   2.0000      -0.327020        -8.8987
  82   2.0000      -0.309866        -8.4319
  83   2.0000      -0.289119        -7.8673
  84   2.0000      -0.278488        -7.5781
  85   2.0000      -0.261267        -7.1094
  86   2.0000      -0.260055        -7.0765
  87   2.0000      -0.246396        -6.7048
  88   2.0000      -0.244980        -6.6663
  89   2.0000      -0.227569        -6.1925
  90   2.0000      -0.192626        -5.2416
  91   0.0000      -0.071237        -1.9385
  92   0.0000      -0.033914        -0.9228
  93   0.0000      -0.012875        -0.3503
  94   0.0000      -0.011644        -0.3169
  95   0.0000      -0.004982        -0.1356

MULLIKEN ATOMIC CHARGES
-----------------------
   0 O :   -1.000108
   1 N :    0.237762
   2 C :    0.455099
   3 C :    0.359028
   4 C :   -0.658457
   5 C :    1.920900
   6 C :   -0.659884
   7 C :   -0.496071
   8 C :   -0.155930
   9 C :   -0.502960
  10 C :   -0.470589
  11 N :   -0.841833
  12 C :   -0.452408
  13 N :   -0.427871
  14 C :    1.068882
  15 C :   -0.553724
  16 C :   -0.373974
  17 C :   -0.345705
  18 C :   -0.563791
  19 C :    0.038787
  20 C :    1.606125
  21 C :   -0.257481
  22 C :   -0.041647
  23 C :   -0.181048
  24 C :   -0.205416
  25 C :   -0.343656
  26 H :    0.000660
  27 H :    0.076795
  28 H :    0.088285
  29 H :    0.219291
  30 H :    0.206431
  31 H :    0.202676
  32 H :    0.073555
  33 H :    0.003100
  34 H :    0.134066
  35 H :    0.204558
  36 H :    0.205358
  37 H :    0.176511
  38 H :    0.298725
  39 H :    0.113333
  40 H :    0.115676
  41 H :    0.136352
  42 H :    0.118080
  43 H :    0.133097
  44 H :    0.119392
  45 H :    0.111884
  46 H :    0.108143
Sum of atomic charges:   -0.0000000

LOEWDIN ATOMIC CHARGES
----------------------
   0 O :    0.246815
   1 N :   -0.288143
   2 C :   -0.503759
   3 C :   -0.040073
   4 C :   -0.059536
   5 C :   -0.416555
   6 C :   -0.078235
   7 C :   -0.131898
   8 C :   -0.144157
   9 C :   -0.130546
  10 C :   -0.070167
  11 N :    0.352033
  12 C :   -0.486249
  13 N :    0.365381
  14 C :   -0.467374
  15 C :   -0.073343
  16 C :   -0.148994
  17 C :   -0.158783
  18 C :   -0.148058
  19 C :   -0.064547
  20 C :   -0.233608
  21 C :   -0.345273
  22 C :   -0.160534
  23 C :   -0.259519
  24 C :   -0.262258
  25 C :   -0.163497
  26 H :    0.206507
  27 H :    0.216749
  28 H :    0.189696
  29 H :    0.169743
  30 H :    0.168399
  31 H :    0.170313
  32 H :    0.192364
  33 H :    0.182087
  34 H :    0.186174
  35 H :    0.170592
  36 H :    0.165101
  37 H :    0.171018
  38 H :    0.188567
  39 H :    0.204091
  40 H :    0.196887
  41 H :    0.163449
  42 H :    0.185910
  43 H :    0.162880
  44 H :    0.186521
  45 H :    0.193682
  46 H :    0.200146

  Mayer bond orders larger than 0.100000
B(  0-O ,  1-N ) :   0.4097 B(  0-O ,  2-C ) :   0.3059 B(  0-O ,  3-C ) :  -0.1722
B(  0-O , 21-C ) :   0.2028 B(  0-O , 22-C ) :  -0.1027 B(  1-N ,  2-C ) :   1.1813
B(  1-N ,  4-C ) :   0.1144 B(  1-N , 11-N ) :  -0.2064 B(  1-N , 12-C ) :   0.1922
B(  1-N , 20-C ) :  -0.1052 B(  1-N , 21-C ) :   0.7769 B(  2-C ,  3-C ) :  -0.9961
B(  2-C ,  4-C ) :   0.1885 B(  2-C ,  5-C ) :   0.1180 B(  2-C ,  6-C ) :  -0.1047
B(  2-C , 10-C ) :   0.2756 B(  2-C , 11-N ) :   1.2351 B(  2-C , 12-C ) :  -0.6419
B(  2-C , 20-C ) :   0.2470 B(  2-C , 21-C ) :  -0.3063 B(  2-C , 26-H ) :  -0.2646
B(  3-C ,  4-C ) :   0.9274 B(  3-C ,  6-C ) :   0.2018 B(  3-C ,  9-C ) :  -0.1426
B(  3-C , 10-C ) :  -0.1104 B(  3-C , 12-C ) :   0.1912 B(  3-C , 21-C ) :   0.2094
B(  3-C , 26-H ) :   1.3717 B(  4-C ,  5-C ) :  -0.2269 B(  4-C ,  6-C ) :   0.3103
B(  4-C ,  8-C ) :   0.1209 B(  4-C , 10-C ) :   0.1716 B(  4-C , 26-H ) :  -0.1136
B(  4-C , 27-H ) :   1.3238 B(  5-C ,  6-C ) :   0.3173 B(  5-C ,  7-C ) :  -0.1451
B(  5-C ,  9-C ) :  -0.2273 B(  5-C , 10-C ) :   0.6481 B(  5-C , 27-H ) :  -0.2369
B(  5-C , 28-H ) :  -0.1666 B(  6-C ,  7-C ) :   1.3186 B(  6-C ,  9-C ) :   0.1001
B(  6-C , 28-H ) :   1.1602 B(  7-C ,  8-C ) :   1.1791 B(  7-C ,  9-C ) :   0.1230
B(  7-C , 29-H ) :   0.9335 B(  8-C ,  9-C ) :   1.1699 B(  8-C , 30-H ) :   0.9412
B(  9-C , 10-C ) :   1.3126 B(  9-C , 31-H ) :   0.9465 B( 10-C , 32-H ) :   1.1343
B( 11-N , 13-N ) :  -0.2575 B( 11-N , 14-C ) :   0.1760 B( 11-N , 19-C ) :  -0.1075
B( 11-N , 21-C ) :   0.1091 B( 12-C , 13-N ) :   0.7689 B( 12-C , 17-C ) :   0.1255
B( 12-C , 19-C ) :   0.1216 B( 12-C , 20-C ) :  -1.5541 B( 12-C , 21-C ) :   1.0262
B( 13-N , 14-C ) :   0.5071 B( 13-N , 15-C ) :   0.2085 B( 13-N , 19-C ) :  -0.3357
B( 13-N , 20-C ) :  -0.1507 B( 13-N , 21-C ) :   0.1708 B( 13-N , 33-H ) :   1.2311
B( 14-C , 15-C ) :   0.7148 B( 14-C , 17-C ) :  -0.1065 B( 14-C , 18-C ) :  -0.2098
B( 14-C , 19-C ) :   0.9678 B( 14-C , 20-C ) :   0.1785 B( 14-C , 21-C ) :  -0.1372
B( 15-C , 16-C ) :   1.1601 B( 15-C , 34-H ) :   1.0403 B( 16-C , 17-C ) :   1.1672
B( 16-C , 35-H ) :   0.9628 B( 17-C , 18-C ) :   1.3004 B( 17-C , 36-H ) :   0.9437
B( 18-C , 19-C ) :   0.9975 B( 18-C , 37-H ) :   1.0031 B( 19-C , 38-H ) :   0.9042
B( 20-C , 21-C ) :   0.4371 B( 20-C , 25-C ) :   0.9392 B( 21-C , 22-C ) :   0.6993
B( 21-C , 25-C ) :  -0.1071 B( 22-C , 23-C ) :   0.8454 B( 22-C , 39-H ) :   1.0082
B( 22-C , 40-H ) :   0.9827 B( 23-C , 24-C ) :   0.8827 B( 23-C , 41-H ) :   1.0136
B( 23-C , 42-H ) :   1.0153 B( 24-C , 25-C ) :   0.8537 B( 24-C , 43-H ) :   1.0160
B( 24-C , 44-H ) :   1.0169 B( 25-C , 45-H ) :   1.0042 B( 25-C , 46-H ) :   1.0353

-----------------------------------------------------------------------------
         ABSORPTION SPECTRUM VIA TRANSITION ELECTRIC DIPOLE MOMENTS
-----------------------------------------------------------------------------
State   Energy    Wavelength  fosc         T2        TX        TY        TZ
        (cm-1)      (nm)                 (au**2)    (au)      (au)      (au)
-----------------------------------------------------------------------------
   1   22861.3    437.4   0.311625592   4.48754  -1.70343  -1.25848   0.04578
   2   29617.0    337.6   0.022606825   0.25129  -0.49864   0.02882   0.04260
   3   30025.9    333.0   0.489640451   5.36854  -2.31500   0.08356  -0.04843
   4   31912.7    313.4   0.737313713   7.60613  -0.97768  -2.57450   0.14903
   5   33751.3    296.3   0.422747385   4.12350   1.95656  -0.53141   0.11389
   6   34730.8    287.9   0.070883679   0.67190  -0.25407   0.77915  -0.01674
   7   34821.1    287.2   0.055348376   0.52328   0.30076  -0.65303  -0.07992
   8   35894.5    278.6   0.060248415   0.55258  -0.29339   0.67293   0.11690
   9   36522.5    273.8   0.227234615   2.04828   0.40842  -1.35959   0.18161
  10   36897.7    271.0   0.001368328   0.01221   0.02582   0.08668  -0.06348

FINAL SINGLE POINT ENERGY     -1089.789935933968

DIPOLE MOMENT
-------------
                                X             Y             Z
Electronic contribution:      6.15126       4.69894       0.07359
Nuclear contribution   :     -8.72620      -4.23504      -0.30638
                        -----------------------------------------
Total Dipole Moment    :     -2.57494       0.46389      -0.23280
                        -----------------------------------------
Magnitude (a.u.)       :      2.62673
Magnitude (Debye)      :      6.67662

Rotational constants in cm-1:     0.007327     0.004423     0.002773
Rotational constants in MHz :   219.645002   132.612336    83.146466

                             ****ORCA TERMINATED NORMALLY****
TOTAL RUN TIME: 0 days 6 hours 21 minutes 42 seconds 374 msec
