                         Program Version 5.0.2 -  RELEASE  -
|  1> ! b3lyp aug-cc-PVTZ RIJCOSX Opt
|  2> %maxcore 4000
|  3> %basis
|  4>  AuxJ "aug-cc-PVTZ/JK"
|  5>  AuxC "aug-cc-PVTZ/C"
|  6>  newGTO H "cc-PVTZ" end
|  7>  newAuxJGTO H "cc-PVTZ/JK" end
|  8>  newAuxCGTO H "cc-PVTZ/C" end
|  9> end
| 10> %cpcm
| 11>  SMD true
| 12>  SMDsolvent "dichloromethane"
| 13> end
| 14> %pal nprocs 4 end
| 15> * xyz 0 1
| 16> F          0.72380        3.39900        2.61910
| 17> B          0.91350        2.05130        2.60710
| 18> F          1.14070        1.54790        3.85390
| 19> O         -0.32270        1.40010        2.05040
| 20> C         -0.27780        0.65900        1.00080
| 21> C         -1.49040        0.07470        0.56860
| 22> C         -2.54740       -0.40390        0.22560
| 23> C         -3.76600       -0.97090       -0.19280
| 24> C         -3.84740       -1.64970       -1.41190
| 25> C         -5.04980       -2.19760       -1.81280
| 26> C         -6.17350       -2.07890       -1.00860
| 27> C         -6.09630       -1.40760        0.20250
| 28> C         -4.90110       -0.85190        0.61430
| 29> C          0.89140        0.40810        0.27860
| 30> C          2.07760        0.99670        0.71400
| 31> C          3.35730        0.77730        0.02690
| 32> C          4.54130        1.00820        0.73150
| 33> C          5.76580        0.80880        0.12520
| 34> C          5.82630        0.38700       -1.19380
| 35> C          4.65640        0.16970       -1.90530
| 36> C          3.42730        0.36000       -1.30310
| 37> O          2.11970        1.75080        1.75630
| 38> H         -2.96700       -1.73660       -2.03120
| 39> H         -5.11380       -2.72020       -2.75560
| 40> H         -7.11080       -2.51020       -1.32670
| 41> H         -6.97290       -1.31740        0.82620
| 42> H         -4.82870       -0.32640        1.55440
| 43> H          0.85920       -0.24490       -0.57350
| 44> H          4.47670        1.33690        1.75720
| 45> H          6.67530        0.98420        0.67950
| 46> H          6.78320        0.23290       -1.66970
| 47> H          4.70400       -0.14690       -2.93650
| 48> H          2.52610        0.21060       -1.87670
| 49> *
| 50>
| 51>
| 52> $new_job
| 53> ! b3lyp aug-cc-PVTZ RIJCOSX SP
| 54> %maxcore 4000
| 55> %basis
| 56>  AuxJ "aug-cc-PVTZ/JK"
| 57>  AuxC "aug-cc-PVTZ/C"
| 58>  newGTO H "cc-PVTZ" end
| 59>  newAuxJGTO H "cc-PVTZ/JK" end
| 60>  newAuxCGTO H "cc-PVTZ/C" end
| 61> end
| 62> %cpcm
| 63>  SMD true
| 64>  SMDsolvent "dichloromethane"
| 65> end
| 66> %pal nprocs 4 end
| 67> %tddft
| 68>  nroots 10
| 69>  maxdim 7
| 70> end
| 71> * xyzfile 0 1
| 72>
| 73>                          ****END OF INPUT****
 Total Charge           Charge          ....    0
 Multiplicity           Mult            ....    1
 Number of Electrons    NEL             ....  152
FINAL SINGLE POINT ENERGY     -1029.407963863651
FINAL SINGLE POINT ENERGY     -1029.409718077705
FINAL SINGLE POINT ENERGY     -1029.410175163778
FINAL SINGLE POINT ENERGY     -1029.410314725181
FINAL SINGLE POINT ENERGY     -1029.410366142883
FINAL SINGLE POINT ENERGY     -1029.410379503334
FINAL SINGLE POINT ENERGY     -1029.410392030713
FINAL SINGLE POINT ENERGY     -1029.410385523677
FINAL SINGLE POINT ENERGY     -1029.410374582162
FINAL SINGLE POINT ENERGY     -1029.410346843617
FINAL SINGLE POINT ENERGY     -1029.410295361221
FINAL SINGLE POINT ENERGY     -1029.410327614180
FINAL SINGLE POINT ENERGY     -1029.410398272070
FINAL SINGLE POINT ENERGY     -1029.410404178767
FINAL SINGLE POINT ENERGY     -1029.410408436662
FINAL SINGLE POINT ENERGY     -1029.410419652154
FINAL SINGLE POINT ENERGY     -1029.410424800232
FINAL SINGLE POINT ENERGY     -1029.410425978160
                    ***********************HURRAY********************
FINAL SINGLE POINT ENERGY     -1029.410424056607

CARTESIAN COORDINATES (ANGSTROEM)
---------------------------------
  F      0.771520    3.159365    2.705870
  B      0.984041    1.788272    2.789440
  F      1.212852    1.396947    4.095943
  O     -0.228413    1.081632    2.283766
  C     -0.251044    0.526756    1.100181
  C     -1.492684    0.013995    0.666593
  C     -2.545832   -0.429724    0.270406
  C     -3.779593   -0.942559   -0.199100
  C     -3.851366   -1.572327   -1.453777
  C     -5.062269   -2.067975   -1.910500
  C     -6.208869   -1.944369   -1.128855
  C     -6.144887   -1.322948    0.116403
  C     -4.940115   -0.822939    0.584530
  C      0.883063    0.422511    0.304300
  C      2.109023    0.867802    0.797019
  C      3.375031    0.729535    0.068768
  C      4.508649    1.424880    0.515721
  C      5.711023    1.315430   -0.165414
  C      5.803708    0.505789   -1.294472
  C      4.686763   -0.195219   -1.741739
  C      3.479881   -0.084909   -1.069237
  O      2.179182    1.437577    1.966125
  H     -2.957632   -1.665373   -2.055289
  H     -5.113761   -2.551535   -2.876863
  H     -7.152217   -2.332078   -1.490240
  H     -7.036338   -1.227255    0.721682
  H     -4.883178   -0.338085    1.549382
  H      0.797360   -0.030936   -0.666843
  H      4.437379    2.056487    1.388883
  H      6.577144    1.862117    0.182718
  H      6.744011    0.418900   -1.823156
  H      4.758117   -0.831814   -2.613451
  H      2.629452   -0.647850   -1.424891

 Multiplicity           Mult            ....    1
 Number of Electrons    NEL             ....  152
 Basis Dimension        Dim             .... 1166

ORBITAL ENERGIES
----------------

  NO   OCC          E(Eh)            E(eV)
   0   2.0000     -24.647809      -670.7010
   1   2.0000     -24.646824      -670.6742
   2   2.0000     -19.172872      -521.7204
   3   2.0000     -19.172397      -521.7074
   4   2.0000     -10.303483      -280.3720
   5   2.0000     -10.292987      -280.0864
   6   2.0000     -10.215273      -277.9717
   7   2.0000     -10.212366      -277.8926
   8   2.0000     -10.204171      -277.6696
   9   2.0000     -10.195481      -277.4331
  10   2.0000     -10.193337      -277.3748
  11   2.0000     -10.193285      -277.3734
  12   2.0000     -10.192944      -277.3641
  13   2.0000     -10.190739      -277.3041
  14   2.0000     -10.190376      -277.2942
  15   2.0000     -10.189858      -277.2801
  16   2.0000     -10.189108      -277.2597
  17   2.0000     -10.185516      -277.1620
  18   2.0000     -10.185302      -277.1562
  19   2.0000     -10.184962      -277.1469
  20   2.0000     -10.184468      -277.1335
  21   2.0000      -6.853137      -186.4833
  22   2.0000      -1.189967       -32.3806
  23   2.0000      -1.155578       -31.4449
  24   2.0000      -1.101436       -29.9716
  25   2.0000      -1.073337       -29.2070
  26   2.0000      -0.878274       -23.8990
  27   2.0000      -0.875725       -23.8297
  28   2.0000      -0.829526       -22.5726
  29   2.0000      -0.803935       -21.8762
  30   2.0000      -0.779335       -21.2068
  31   2.0000      -0.761452       -20.7202
  32   2.0000      -0.761271       -20.7152
  33   2.0000      -0.750874       -20.4323
  34   2.0000      -0.698947       -19.0193
  35   2.0000      -0.667094       -18.1525
  36   2.0000      -0.633404       -17.2358
  37   2.0000      -0.618626       -16.8337
  38   2.0000      -0.617859       -16.8128
  39   2.0000      -0.606371       -16.5002
  40   2.0000      -0.575711       -15.6659
  41   2.0000      -0.559016       -15.2116
  42   2.0000      -0.547921       -14.9097
  43   2.0000      -0.524001       -14.2588
  44   2.0000      -0.514934       -14.0121
  45   2.0000      -0.507132       -13.7998
  46   2.0000      -0.494639       -13.4598
  47   2.0000      -0.486409       -13.2359
  48   2.0000      -0.477699       -12.9989
  49   2.0000      -0.470861       -12.8128
  50   2.0000      -0.459843       -12.5130
  51   2.0000      -0.446792       -12.1578
  52   2.0000      -0.443131       -12.0582
  53   2.0000      -0.440192       -11.9782
  54   2.0000      -0.436991       -11.8911
  55   2.0000      -0.432842       -11.7782
  56   2.0000      -0.432287       -11.7631
  57   2.0000      -0.413167       -11.2429
  58   2.0000      -0.404521       -11.0076
  59   2.0000      -0.399227       -10.8635
  60   2.0000      -0.391621       -10.6566
  61   2.0000      -0.387700       -10.5498
  62   2.0000      -0.380104       -10.3432
  63   2.0000      -0.372875       -10.1464
  64   2.0000      -0.367826       -10.0091
  65   2.0000      -0.366722        -9.9790
  66   2.0000      -0.359256        -9.7759
  67   2.0000      -0.353457        -9.6180
  68   2.0000      -0.334851        -9.1118
  69   2.0000      -0.332367        -9.0442
  70   2.0000      -0.303190        -8.2502
  71   2.0000      -0.292183        -7.9507
  72   2.0000      -0.270805        -7.3690
  73   2.0000      -0.270496        -7.3606
  74   2.0000      -0.269682        -7.3384
  75   2.0000      -0.244027        -6.6403
  76   0.0000      -0.113963        -3.1011
  77   0.0000      -0.053487        -1.4555
  78   0.0000      -0.024461        -0.6656
  79   0.0000      -0.024017        -0.6535
  80   0.0000      -0.011108        -0.3023

MULLIKEN ATOMIC CHARGES
-----------------------
   0 F :   -0.726529
   1 B :    1.680353
   2 F :   -0.733950
   3 O :   -1.017901
   4 C :    0.841538
   5 C :    0.969161
   6 C :   -1.031605
   7 C :    2.119555
   8 C :   -0.601385
   9 C :   -0.399203
  10 C :   -0.189902
  11 C :   -0.427098
  12 C :   -0.578218
  13 C :   -0.956051
  14 C :    0.678986
  15 C :    1.643067
  16 C :   -0.433079
  17 C :   -0.507186
  18 C :   -0.147493
  19 C :   -0.462409
  20 C :   -0.453834
  21 O :   -0.974452
  22 H :    0.128461
  23 H :    0.210048
  24 H :    0.206538
  25 H :    0.210414
  26 H :    0.130362
  27 H :   -0.010668
  28 H :    0.125776
  29 H :    0.213558
  30 H :    0.208284
  31 H :    0.212170
  32 H :    0.072692
Sum of atomic charges:   -0.0000000

LOEWDIN ATOMIC CHARGES
----------------------
   0 F :    0.430629
   1 B :   -1.866619
   2 F :    0.431816
   3 O :    0.624082
   4 C :   -0.534334
   5 C :    0.080811
   6 C :    0.060544
   7 C :   -0.378938
   8 C :   -0.040981
   9 C :   -0.109388
  10 C :   -0.122354
  11 C :   -0.108643
  12 C :   -0.039677
  13 C :    0.088656
  14 C :   -0.480377
  15 C :   -0.302716
  16 C :   -0.032056
  17 C :   -0.100098
  18 C :   -0.116378
  19 C :   -0.103001
  20 C :   -0.040079
  21 O :    0.629806
  22 H :    0.192429
  23 H :    0.172394
  24 H :    0.172205
  25 H :    0.172574
  26 H :    0.192910
  27 H :    0.212526
  28 H :    0.199357
  29 H :    0.172715
  30 H :    0.172876
  31 H :    0.172548
  32 H :    0.196760

  Mayer bond orders larger than 0.100000
B(  0-F ,  1-B ) :   0.2590 B(  0-F ,  3-O ) :   0.1148 B(  0-F , 14-C ) :  -0.1190
B(  0-F , 21-O ) :   0.1835 B(  1-B ,  2-F ) :   0.2067 B(  1-B ,  3-O ) :   0.4870
B(  1-B , 21-O ) :   0.4813 B(  2-F ,  3-O ) :   0.1922 B(  2-F ,  4-C ) :  -0.1144
B(  2-F ,  5-C ) :   0.1214 B(  2-F , 21-O ) :   0.1315 B(  3-O ,  4-C ) :   0.6312
B(  3-O , 13-C ) :   0.2652 B(  3-O , 21-O ) :  -0.1929 B(  4-C ,  5-C ) :  -0.3537
B(  4-C ,  6-C ) :   0.2758 B(  4-C ,  8-C ) :   0.1551 B(  4-C , 12-C ) :   0.1687
B(  4-C , 13-C ) :   0.5569 B(  4-C , 14-C ) :  -0.2728 B(  4-C , 15-C ) :   0.1772
B(  4-C , 27-H ) :  -0.1790 B(  5-C ,  6-C ) :   2.8862 B(  5-C ,  7-C ) :  -0.3349
B(  5-C ,  8-C ) :   0.1431 B(  5-C ,  9-C ) :  -0.2687 B(  5-C , 10-C ) :   0.2055
B(  5-C , 11-C ) :  -0.2166 B(  5-C , 13-C ) :   0.3860 B(  6-C ,  8-C ) :   0.1772
B(  6-C ,  9-C ) :   0.2080 B(  6-C , 11-C ) :   0.1921 B(  6-C , 12-C ) :   0.3173
B(  6-C , 13-C ) :  -0.5051 B(  6-C , 16-C ) :  -0.1073 B(  6-C , 20-C ) :   0.1284
B(  7-C ,  8-C ) :   0.3339 B(  7-C ,  9-C ) :  -0.1650 B(  7-C , 10-C ) :  -0.2097
B(  7-C , 11-C ) :  -0.1330 B(  7-C , 12-C ) :   0.2972 B(  7-C , 26-H ) :  -0.1150
B(  8-C ,  9-C ) :   1.3329 B(  8-C , 22-H ) :   1.0850 B(  9-C , 10-C ) :   1.2096
B(  9-C , 23-H ) :   0.9527 B( 10-C , 11-C ) :   1.2010 B( 10-C , 24-H ) :   0.9440
B( 11-C , 12-C ) :   1.3427 B( 11-C , 25-H ) :   0.9494 B( 12-C , 26-H ) :   1.0899
B( 13-C , 14-C ) :   0.9739 B( 13-C , 16-C ) :   0.1870 B( 13-C , 21-O ) :   0.1258
B( 13-C , 27-H ) :   1.4763 B( 14-C , 18-C ) :   0.1123 B( 14-C , 19-C ) :   0.1002
B( 14-C , 21-O ) :   0.6249 B( 14-C , 27-H ) :  -0.1777 B( 15-C , 16-C ) :   0.6615
B( 15-C , 17-C ) :  -0.1621 B( 15-C , 18-C ) :  -0.1028 B( 15-C , 19-C ) :  -0.2100
B( 15-C , 20-C ) :   0.7508 B( 15-C , 28-H ) :  -0.1025 B( 16-C , 17-C ) :   1.2443
B( 16-C , 20-C ) :  -0.1157 B( 16-C , 28-H ) :   1.0995 B( 17-C , 18-C ) :   1.1734
B( 17-C , 29-H ) :   0.9461 B( 18-C , 19-C ) :   1.2073 B( 18-C , 30-H ) :   0.9438
B( 19-C , 20-C ) :   1.2784 B( 19-C , 31-H ) :   0.9449 B( 20-C , 32-H ) :   1.1282

-----------------------------------------------------------------------------
         ABSORPTION SPECTRUM VIA TRANSITION ELECTRIC DIPOLE MOMENTS
-----------------------------------------------------------------------------
State   Energy    Wavelength  fosc         T2        TX        TY        TZ
        (cm-1)      (nm)                 (au**2)    (au)      (au)      (au)
-----------------------------------------------------------------------------
   1   25785.2    387.8   1.603160887  20.46830  -4.41442  -0.98629  -0.09168
   2   29847.1    335.0   0.024646894   0.27185  -0.34036  -0.29050  -0.26762
   3   30698.9    325.7   0.012819709   0.13748   0.17822  -0.10940  -0.30618
   4   32298.5    309.6   0.163616377   1.66771   0.49310  -0.49297  -1.08699
   5   33056.7    302.5   0.010800968   0.10757   0.15616  -0.10716  -0.26776
   6   36971.3    270.5   0.024620368   0.21923  -0.37891  -0.19618  -0.19279
   7   39005.4    256.4   0.003422250   0.02888  -0.08373  -0.11437  -0.09378
   8   39592.9    252.6   0.142547158   1.18527  -0.43170  -0.58185  -0.81263
   9   41394.4    241.6   0.000035690   0.00028  -0.00188   0.00764   0.01490
  10   41950.9    238.4   0.004105869   0.03222  -0.14980  -0.08779  -0.04553

FINAL SINGLE POINT ENERGY     -1029.292938116649

DIPOLE MOMENT
-------------
                                X             Y             Z
Electronic contribution:      3.99957      10.59021      17.09759
Nuclear contribution   :     -4.55920     -13.05651     -21.17181
                        -----------------------------------------
Total Dipole Moment    :     -0.55963      -2.46631      -4.07422
                        -----------------------------------------
Magnitude (a.u.)       :      4.79532
Magnitude (Debye)      :     12.18875

Rotational constants in cm-1:     0.015678     0.003842     0.003145
Rotational constants in MHz :   470.016176   115.172556    94.296160

                             ****ORCA TERMINATED NORMALLY****
TOTAL RUN TIME: 0 days 8 hours 45 minutes 11 seconds 370 msec
