                         Program Version 5.0.2 -  RELEASE  -
|  1> ! m062x defgrid3 aug-cc-PVTZ RIJCOSX Opt
|  2> %maxcore 4000
|  3> %basis
|  4>  AuxJ "aug-cc-PVTZ/JK"
|  5>  AuxC "aug-cc-PVTZ/C"
|  6>  newGTO H "cc-PVTZ" end
|  7>  newAuxJGTO H "cc-PVTZ/JK" end
|  8>  newAuxCGTO H "cc-PVTZ/C" end
|  9> end
| 10> %cpcm
| 11>  SMD true
| 12>  SMDsolvent "dichloromethane"
| 13> end
| 14> %pal nprocs 4 end
| 15> * xyz 0 1
| 16> F          0.72380        3.39900        2.61910
| 17> B          0.91350        2.05130        2.60710
| 18> F          1.14070        1.54790        3.85390
| 19> O         -0.32270        1.40010        2.05040
| 20> C         -0.27780        0.65900        1.00080
| 21> C         -1.49040        0.07470        0.56860
| 22> C         -2.54740       -0.40390        0.22560
| 23> C         -3.76600       -0.97090       -0.19280
| 24> C         -3.84740       -1.64970       -1.41190
| 25> C         -5.04980       -2.19760       -1.81280
| 26> C         -6.17350       -2.07890       -1.00860
| 27> C         -6.09630       -1.40760        0.20250
| 28> C         -4.90110       -0.85190        0.61430
| 29> C          0.89140        0.40810        0.27860
| 30> C          2.07760        0.99670        0.71400
| 31> C          3.35730        0.77730        0.02690
| 32> C          4.54130        1.00820        0.73150
| 33> C          5.76580        0.80880        0.12520
| 34> C          5.82630        0.38700       -1.19380
| 35> C          4.65640        0.16970       -1.90530
| 36> C          3.42730        0.36000       -1.30310
| 37> O          2.11970        1.75080        1.75630
| 38> H         -2.96700       -1.73660       -2.03120
| 39> H         -5.11380       -2.72020       -2.75560
| 40> H         -7.11080       -2.51020       -1.32670
| 41> H         -6.97290       -1.31740        0.82620
| 42> H         -4.82870       -0.32640        1.55440
| 43> H          0.85920       -0.24490       -0.57350
| 44> H          4.47670        1.33690        1.75720
| 45> H          6.67530        0.98420        0.67950
| 46> H          6.78320        0.23290       -1.66970
| 47> H          4.70400       -0.14690       -2.93650
| 48> H          2.52610        0.21060       -1.87670
| 49> *
| 50>
| 51>
| 52> $new_job
| 53> ! m062x defgrid3 aug-cc-PVTZ RIJCOSX SP
| 54> %maxcore 4000
| 55> %basis
| 56>  AuxJ "aug-cc-PVTZ/JK"
| 57>  AuxC "aug-cc-PVTZ/C"
| 58>  newGTO H "cc-PVTZ" end
| 59>  newAuxJGTO H "cc-PVTZ/JK" end
| 60>  newAuxCGTO H "cc-PVTZ/C" end
| 61> end
| 62> %cpcm
| 63>  SMD true
| 64>  SMDsolvent "dichloromethane"
| 65> end
| 66> %pal nprocs 4 end
| 67> %tddft
| 68>  nroots 10
| 69>  maxdim 7
| 70> end
| 71> * xyzfile 0 1
| 72>
| 73>                          ****END OF INPUT****
 Total Charge           Charge          ....    0
 Multiplicity           Mult            ....    1
 Number of Electrons    NEL             ....  152
FINAL SINGLE POINT ENERGY     -1029.587247795467
FINAL SINGLE POINT ENERGY     -1029.588359988278
FINAL SINGLE POINT ENERGY     -1029.588723468316
FINAL SINGLE POINT ENERGY     -1029.588808718333
FINAL SINGLE POINT ENERGY     -1029.588871655841
FINAL SINGLE POINT ENERGY     -1029.588887990318
FINAL SINGLE POINT ENERGY     -1029.588922447986
FINAL SINGLE POINT ENERGY     -1029.588961874547
FINAL SINGLE POINT ENERGY     -1029.588976603269
FINAL SINGLE POINT ENERGY     -1029.588988029616
FINAL SINGLE POINT ENERGY     -1029.589072200593
FINAL SINGLE POINT ENERGY     -1029.589076883964
FINAL SINGLE POINT ENERGY     -1029.589067738954
FINAL SINGLE POINT ENERGY     -1029.589050559560
FINAL SINGLE POINT ENERGY     -1029.588875433941
FINAL SINGLE POINT ENERGY     -1029.589045795740
FINAL SINGLE POINT ENERGY     -1029.589038272047
FINAL SINGLE POINT ENERGY     -1029.589042409253
                    ***********************HURRAY********************
FINAL SINGLE POINT ENERGY     -1029.589045367367

CARTESIAN COORDINATES (ANGSTROEM)
---------------------------------
  F      0.794549    3.270859    2.903177
  B      0.943470    1.925528    2.671439
  F      1.170703    1.228791    3.839846
  O     -0.295953    1.407374    2.036343
  C     -0.252716    0.602104    1.021305
  C     -1.494337    0.053637    0.601898
  C     -2.540601   -0.413265    0.230184
  C     -3.780912   -0.960271   -0.204486
  C     -3.839275   -1.711701   -1.383006
  C     -5.049466   -2.237767   -1.801381
  C     -6.199931   -2.022083   -1.050938
  C     -6.144053   -1.276185    0.121207
  C     -4.940022   -0.743194    0.548163
  C      0.918470    0.295652    0.350560
  C      2.092957    0.934952    0.743710
  C      3.371021    0.772374    0.042329
  C      4.549806    1.178309    0.673571
  C      5.766312    1.029365    0.030155
  C      5.814479    0.488052   -1.249444
  C      4.643858    0.091900   -1.885773
  C      3.425079    0.227620   -1.243235
  O      2.104720    1.727197    1.763335
  H     -2.937462   -1.872205   -1.957956
  H     -5.096743   -2.817209   -2.713251
  H     -7.143357   -2.435943   -1.381131
  H     -7.040577   -1.110220    0.702724
  H     -4.882801   -0.161002    1.457800
  H      0.892159   -0.393630   -0.474340
  H      4.506153    1.597750    1.668645
  H      6.677819    1.334990    0.525254
  H      6.765611    0.376691   -1.753117
  H      4.680747   -0.319743   -2.885021
  H      2.520294   -0.068627   -1.754666

 Multiplicity           Mult            ....    1
 Number of Electrons    NEL             ....  152
 Basis Dimension        Dim             .... 1166

ORBITAL ENERGIES
----------------

  NO   OCC          E(Eh)            E(eV)
   0   2.0000     -25.208778      -685.9657
   1   2.0000     -25.208190      -685.9497
   2   2.0000     -19.676135      -535.4148
   3   2.0000     -19.675747      -535.4043
   4   2.0000     -10.681023      -290.6454
   5   2.0000     -10.670729      -290.3653
   6   2.0000     -10.582456      -287.9633
   7   2.0000     -10.581641      -287.9411
   8   2.0000     -10.571432      -287.6633
   9   2.0000     -10.563787      -287.4553
  10   2.0000     -10.562378      -287.4169
  11   2.0000     -10.560873      -287.3760
  12   2.0000     -10.560518      -287.3663
  13   2.0000     -10.559508      -287.3388
  14   2.0000     -10.558547      -287.3127
  15   2.0000     -10.558006      -287.2979
  16   2.0000     -10.555969      -287.2425
  17   2.0000     -10.552845      -287.1575
  18   2.0000     -10.552398      -287.1454
  19   2.0000     -10.552308      -287.1429
  20   2.0000     -10.552174      -287.1392
  21   2.0000      -7.155423      -194.7089
  22   2.0000      -1.340070       -36.4652
  23   2.0000      -1.304526       -35.4979
  24   2.0000      -1.238665       -33.7058
  25   2.0000      -1.207994       -32.8712
  26   2.0000      -0.986919       -26.8554
  27   2.0000      -0.985807       -26.8252
  28   2.0000      -0.936645       -25.4874
  29   2.0000      -0.906897       -24.6779
  30   2.0000      -0.880210       -23.9517
  31   2.0000      -0.861769       -23.4499
  32   2.0000      -0.860429       -23.4135
  33   2.0000      -0.848833       -23.0979
  34   2.0000      -0.792423       -21.5629
  35   2.0000      -0.762436       -20.7469
  36   2.0000      -0.718063       -19.5395
  37   2.0000      -0.704966       -19.1831
  38   2.0000      -0.703897       -19.1540
  39   2.0000      -0.694167       -18.8893
  40   2.0000      -0.662210       -18.0196
  41   2.0000      -0.643282       -17.5046
  42   2.0000      -0.625893       -17.0314
  43   2.0000      -0.614180       -16.7127
  44   2.0000      -0.605991       -16.4899
  45   2.0000      -0.597996       -16.2723
  46   2.0000      -0.578645       -15.7457
  47   2.0000      -0.559883       -15.2352
  48   2.0000      -0.554001       -15.0751
  49   2.0000      -0.539689       -14.6857
  50   2.0000      -0.538711       -14.6591
  51   2.0000      -0.532781       -14.4977
  52   2.0000      -0.522958       -14.2304
  53   2.0000      -0.515190       -14.0190
  54   2.0000      -0.511216       -13.9109
  55   2.0000      -0.504856       -13.7378
  56   2.0000      -0.501792       -13.6545
  57   2.0000      -0.500392       -13.6164
  58   2.0000      -0.497713       -13.5435
  59   2.0000      -0.484411       -13.1815
  60   2.0000      -0.477757       -13.0004
  61   2.0000      -0.470401       -12.8003
  62   2.0000      -0.469121       -12.7654
  63   2.0000      -0.452128       -12.3030
  64   2.0000      -0.431907       -11.7528
  65   2.0000      -0.425935       -11.5903
  66   2.0000      -0.419392       -11.4122
  67   2.0000      -0.414779       -11.2867
  68   2.0000      -0.404407       -11.0045
  69   2.0000      -0.399813       -10.8795
  70   2.0000      -0.366342        -9.9687
  71   2.0000      -0.352596        -9.5946
  72   2.0000      -0.325107        -8.8466
  73   2.0000      -0.324949        -8.8423
  74   2.0000      -0.324134        -8.8201
  75   2.0000      -0.295571        -8.0429
  76   0.0000      -0.088296        -2.4027
  77   0.0000      -0.022563        -0.6140
  78   0.0000      -0.002540        -0.0691
  79   0.0000       0.005464         0.1487
  80   0.0000       0.006311         0.1717

MULLIKEN ATOMIC CHARGES
-----------------------
   0 F :   -0.601301
   1 B :    1.241947
   2 F :   -0.586795
   3 O :   -0.942375
   4 C :    0.770513
   5 C :    1.306248
   6 C :   -1.476815
   7 C :    2.483583
   8 C :   -0.540860
   9 C :   -0.419263
  10 C :   -0.102134
  11 C :   -0.417525
  12 C :   -0.519782
  13 C :   -1.132619
  14 C :    0.664993
  15 C :    2.168061
  16 C :   -0.293881
  17 C :   -0.636786
  18 C :   -0.086576
  19 C :   -0.558972
  20 C :   -0.386710
  21 O :   -0.874220
  22 H :    0.069615
  23 H :    0.136330
  24 H :    0.132982
  25 H :    0.132700
  26 H :    0.075062
  27 H :   -0.053760
  28 H :    0.050803
  29 H :    0.133891
  30 H :    0.133614
  31 H :    0.140070
  32 H :   -0.010036
Sum of atomic charges:    0.0000000

LOEWDIN ATOMIC CHARGES
----------------------
   0 F :    0.443432
   1 B :   -1.899676
   2 F :    0.443781
   3 O :    0.636675
   4 C :   -0.541751
   5 C :    0.083040
   6 C :    0.055373
   7 C :   -0.389140
   8 C :   -0.043873
   9 C :   -0.110816
  10 C :   -0.125591
  11 C :   -0.110008
  12 C :   -0.042522
  13 C :    0.096797
  14 C :   -0.490353
  15 C :   -0.311619
  16 C :   -0.031573
  17 C :   -0.099374
  18 C :   -0.117644
  19 C :   -0.101964
  20 C :   -0.040276
  21 O :    0.644274
  22 H :    0.194948
  23 H :    0.173442
  24 H :    0.173575
  25 H :    0.173650
  26 H :    0.195621
  27 H :    0.215681
  28 H :    0.203053
  29 H :    0.173988
  30 H :    0.174541
  31 H :    0.173809
  32 H :    0.200500

  Mayer bond orders larger than 0.100000
B(  0-F ,  1-B ) :   0.3975 B(  0-F ,  3-O ) :   0.1574 B(  0-F , 21-O ) :   0.1033
B(  1-B ,  2-F ) :   0.4145 B(  1-B ,  3-O ) :   0.6993 B(  1-B , 21-O ) :   0.7109
B(  2-F ,  3-O ) :   0.1034 B(  2-F , 21-O ) :   0.1730 B(  3-O ,  4-C ) :   0.8044
B(  3-O , 13-C ) :   0.1693 B(  3-O , 14-C ) :   0.1672 B(  3-O , 21-O ) :  -0.1209
B(  4-C ,  5-C ) :  -0.5415 B(  4-C ,  6-C ) :   0.3959 B(  4-C ,  8-C ) :   0.2199
B(  4-C , 12-C ) :   0.1581 B(  4-C , 13-C ) :   0.6280 B(  4-C , 14-C ) :  -0.2248
B(  4-C , 27-H ) :  -0.3284 B(  5-C ,  6-C ) :   2.8699 B(  5-C ,  7-C ) :  -0.1839
B(  5-C ,  9-C ) :  -0.2658 B(  5-C , 10-C ) :   0.2294 B(  5-C , 11-C ) :  -0.2220
B(  5-C , 13-C ) :   0.1835 B(  5-C , 15-C ) :   0.1045 B(  5-C , 21-O ) :   0.1364
B(  5-C , 27-H ) :   0.1175 B(  6-C ,  7-C ) :  -0.2748 B(  6-C ,  8-C ) :   0.2558
B(  6-C ,  9-C ) :   0.3611 B(  6-C , 11-C ) :   0.3571 B(  6-C , 12-C ) :   0.3509
B(  6-C , 13-C ) :  -0.3242 B(  6-C , 14-C ) :   0.2087 B(  6-C , 15-C ) :  -0.2195
B(  6-C , 20-C ) :   0.1029 B(  6-C , 21-O ) :  -0.1247 B(  6-C , 22-H ) :   0.1139
B(  6-C , 26-H ) :   0.1693 B(  7-C ,  9-C ) :  -0.3908 B(  7-C , 10-C ) :  -0.1255
B(  7-C , 11-C ) :  -0.3350 B(  7-C , 13-C ) :   0.1384 B(  7-C , 22-H ) :  -0.3184
B(  7-C , 26-H ) :  -0.3270 B(  8-C ,  9-C ) :   1.2115 B(  8-C , 22-H ) :   1.2755
B(  8-C , 23-H ) :  -0.1119 B(  9-C , 10-C ) :   1.1113 B(  9-C , 23-H ) :   1.1054
B( 10-C , 11-C ) :   1.0706 B( 10-C , 24-H ) :   1.0707 B( 11-C , 12-C ) :   1.2326
B( 11-C , 25-H ) :   1.1102 B( 12-C , 26-H ) :   1.2772 B( 13-C , 14-C ) :   0.8481
B( 13-C , 16-C ) :   0.1684 B( 13-C , 19-C ) :  -0.1225 B( 13-C , 20-C ) :   0.1994
B( 13-C , 27-H ) :   1.5966 B( 13-C , 32-H ) :   0.1016 B( 14-C , 17-C ) :   0.1764
B( 14-C , 19-C ) :   0.2213 B( 14-C , 20-C ) :  -0.1976 B( 14-C , 21-O ) :   0.8661
B( 14-C , 27-H ) :  -0.3272 B( 15-C , 16-C ) :   0.3229 B( 15-C , 17-C ) :  -0.3047
B( 15-C , 19-C ) :  -0.3593 B( 15-C , 20-C ) :   0.4329 B( 15-C , 21-O ) :  -0.2301
B( 15-C , 28-H ) :  -0.3305 B( 15-C , 32-H ) :  -0.3046 B( 16-C , 17-C ) :   1.0126
B( 16-C , 28-H ) :   1.3136 B( 16-C , 29-H ) :  -0.1163 B( 17-C , 18-C ) :   1.1059
B( 17-C , 29-H ) :   1.1106 B( 18-C , 19-C ) :   1.1213 B( 18-C , 30-H ) :   1.0741
B( 18-C , 31-H ) :  -0.1107 B( 19-C , 20-C ) :   1.1503 B( 19-C , 31-H ) :   1.0924
B( 20-C , 32-H ) :   1.3641

-----------------------------------------------------------------------------
         ABSORPTION SPECTRUM VIA TRANSITION ELECTRIC DIPOLE MOMENTS
-----------------------------------------------------------------------------
State   Energy    Wavelength  fosc         T2        TX        TY        TZ
        (cm-1)      (nm)                 (au**2)    (au)      (au)      (au)
-----------------------------------------------------------------------------
   1   29013.8    344.7   1.603389690  18.19323   4.16901   0.90112  -0.02341
   2   35981.6    277.9   0.028323386   0.25914  -0.07681   0.25111   0.43611
   3   36371.7    274.9   0.040608119   0.36756   0.41125   0.22046   0.38708
   4   37896.8    263.9   0.222204447   1.93030   0.08748  -0.73146  -1.17797
   5   38515.5    259.6   0.027271308   0.23310  -0.22362   0.19136   0.38273
   6   42239.4    236.7   0.005551036   0.04326   0.19804   0.05137  -0.03748
   7   42334.6    236.2   0.014611814   0.11363   0.27675  -0.07533  -0.17710
   8   46080.5    217.0   0.049775244   0.35561  -0.43192  -0.22685  -0.34292
   9   47137.6    212.1   0.022553363   0.15751   0.17590  -0.15853  -0.31850
  10   48013.6    208.3   0.011110862   0.07618   0.09434  -0.09459  -0.24153

FINAL SINGLE POINT ENERGY     -1029.456848939791

DIPOLE MOMENT
-------------
                                X             Y             Z
Electronic contribution:      3.99350      11.33733      16.47917
Nuclear contribution   :     -4.32243     -13.86127     -20.31518
                        -----------------------------------------
Total Dipole Moment    :     -0.32893      -2.52395      -3.83601
                        -----------------------------------------
Magnitude (a.u.)       :      4.60364
Magnitude (Debye)      :     11.70152

Rotational constants in cm-1:     0.015977     0.003841     0.003157
Rotational constants in MHz :   478.992359   115.139607    94.642052

                             ****ORCA TERMINATED NORMALLY****
TOTAL RUN TIME: 0 days 18 hours 55 minutes 2 seconds 902 msec
