                         Program Version 5.0.2 -  RELEASE  -
|  1> ! pbe0 d3bj aug-cc-PVTZ RIJCOSX Opt
|  2> %maxcore 4000
|  3> %basis
|  4>  AuxJ "aug-cc-PVTZ/JK"
|  5>  AuxC "aug-cc-PVTZ/C"
|  6>  newGTO H "cc-PVTZ" end
|  7>  newAuxJGTO H "cc-PVTZ/JK" end
|  8>  newAuxCGTO H "cc-PVTZ/C" end
|  9> end
| 10> %cpcm
| 11>  SMD true
| 12>  SMDsolvent "dichloromethane"
| 13> end
| 14> %pal nprocs 4 end
| 15> * xyz 0 1
| 16> F          0.72380        3.39900        2.61910
| 17> B          0.91350        2.05130        2.60710
| 18> F          1.14070        1.54790        3.85390
| 19> O         -0.32270        1.40010        2.05040
| 20> C         -0.27780        0.65900        1.00080
| 21> C         -1.49040        0.07470        0.56860
| 22> C         -2.54740       -0.40390        0.22560
| 23> C         -3.76600       -0.97090       -0.19280
| 24> C         -3.84740       -1.64970       -1.41190
| 25> C         -5.04980       -2.19760       -1.81280
| 26> C         -6.17350       -2.07890       -1.00860
| 27> C         -6.09630       -1.40760        0.20250
| 28> C         -4.90110       -0.85190        0.61430
| 29> C          0.89140        0.40810        0.27860
| 30> C          2.07760        0.99670        0.71400
| 31> C          3.35730        0.77730        0.02690
| 32> C          4.54130        1.00820        0.73150
| 33> C          5.76580        0.80880        0.12520
| 34> C          5.82630        0.38700       -1.19380
| 35> C          4.65640        0.16970       -1.90530
| 36> C          3.42730        0.36000       -1.30310
| 37> O          2.11970        1.75080        1.75630
| 38> H         -2.96700       -1.73660       -2.03120
| 39> H         -5.11380       -2.72020       -2.75560
| 40> H         -7.11080       -2.51020       -1.32670
| 41> H         -6.97290       -1.31740        0.82620
| 42> H         -4.82870       -0.32640        1.55440
| 43> H          0.85920       -0.24490       -0.57350
| 44> H          4.47670        1.33690        1.75720
| 45> H          6.67530        0.98420        0.67950
| 46> H          6.78320        0.23290       -1.66970
| 47> H          4.70400       -0.14690       -2.93650
| 48> H          2.52610        0.21060       -1.87670
| 49> *
| 50>
| 51>
| 52> $new_job
| 53> ! b2plyp aug-cc-PVTZ RIJCOSX SP
| 54> %maxcore 4000
| 55> %basis
| 56>  AuxJ "aug-cc-PVTZ/JK"
| 57>  AuxC "aug-cc-PVTZ/C"
| 58>  newGTO H "cc-PVTZ" end
| 59>  newAuxJGTO H "cc-PVTZ/JK" end
| 60>  newAuxCGTO H "cc-PVTZ/C" end
| 61> end
| 62> %cpcm
| 63>  SMD true
| 64>  SMDsolvent "dichloromethane"
| 65> end
| 66> %pal nprocs 4 end
| 67> %tddft
| 68>  nroots 10
| 69>  maxdim 7
| 70> end
| 71> * xyzfile 0 1
| 72>
| 73>                          ****END OF INPUT****
 Total Charge           Charge          ....    0
 Multiplicity           Mult            ....    1
 Number of Electrons    NEL             ....  152
Dispersion correction           -0.035506234
FINAL SINGLE POINT ENERGY     -1028.827308917071
Dispersion correction            ... done
Dispersion correction           -0.035505485
FINAL SINGLE POINT ENERGY     -1028.828208741720
Dispersion correction            ... done
Dispersion correction           -0.035501347
FINAL SINGLE POINT ENERGY     -1028.828542357196
Dispersion correction            ... done
FINAL SINGLE POINT ENERGY     -1028.828638507313
FINAL SINGLE POINT ENERGY     -1028.828667633679
FINAL SINGLE POINT ENERGY     -1028.828690181074
FINAL SINGLE POINT ENERGY     -1028.828684922124
FINAL SINGLE POINT ENERGY     -1028.828663251380
FINAL SINGLE POINT ENERGY     -1028.828659552172
FINAL SINGLE POINT ENERGY     -1028.828659111015
FINAL SINGLE POINT ENERGY     -1028.828790065944
FINAL SINGLE POINT ENERGY     -1028.828830585586
FINAL SINGLE POINT ENERGY     -1028.828843082548
FINAL SINGLE POINT ENERGY     -1028.828864474180
FINAL SINGLE POINT ENERGY     -1028.828857568041
FINAL SINGLE POINT ENERGY     -1028.828859785495
FINAL SINGLE POINT ENERGY     -1028.828861713426
Dispersion correction            ... done
Dispersion correction           -0.035568694
FINAL SINGLE POINT ENERGY     -1028.828859228161
Dispersion correction            ... done
                    ***********************HURRAY********************
Dispersion correction           -0.035568402
FINAL SINGLE POINT ENERGY     -1028.828861022857

CARTESIAN COORDINATES (ANGSTROEM)
---------------------------------
  F      0.756314    3.180656    2.526657
  B      0.977410    1.832569    2.740408
  F      1.195416    1.554124    4.067214
  O     -0.218784    1.077148    2.285250
  C     -0.251451    0.560226    1.094267
  C     -1.489894    0.043610    0.661675
  C     -2.539020   -0.409162    0.267148
  C     -3.764638   -0.936440   -0.197397
  C     -3.845028   -1.500161   -1.477132
  C     -5.048123   -2.009893   -1.928908
  C     -6.174009   -1.965033   -1.115490
  C     -6.098703   -1.408625    0.155713
  C     -4.901953   -0.894005    0.618787
  C      0.868080    0.482692    0.281140
  C      2.097432    0.885668    0.792354
  C      3.358717    0.723733    0.074210
  C      4.500248    1.378670    0.545237
  C      5.702797    1.246722   -0.124250
  C      5.781754    0.455034   -1.262956
  C      4.653527   -0.205733   -1.732513
  C      3.446733   -0.072912   -1.071100
  O      2.178321    1.421498    1.967369
  H     -2.961941   -1.530320   -2.102709
  H     -5.109836   -2.443981   -2.919213
  H     -7.114662   -2.365148   -1.474282
  H     -6.977915   -1.375007    0.787133
  H     -4.832676   -0.456423    1.606642
  H      0.774267    0.056523   -0.703101
  H      4.432596    1.997539    1.429881
  H      6.581998    1.762746    0.241167
  H      6.725664    0.349940   -1.784460
  H      4.716778   -0.830342   -2.614859
  H      2.580584   -0.605816   -1.439983

 Multiplicity           Mult            ....    1
 Number of Electrons    NEL             ....  152
 Basis Dimension        Dim             .... 1166

ORBITAL ENERGIES
----------------

  NO   OCC          E(Eh)            E(eV)
   0   2.0000     -25.323768      -689.0948
   1   2.0000     -25.321903      -689.0440
   2   2.0000     -19.772966      -538.0498
   3   2.0000     -19.772095      -538.0261
   4   2.0000     -10.759134      -292.7709
   5   2.0000     -10.747572      -292.4563
   6   2.0000     -10.660409      -290.0845
   7   2.0000     -10.657268      -289.9990
   8   2.0000     -10.645828      -289.6877
   9   2.0000     -10.638981      -289.5014
  10   2.0000     -10.638665      -289.4928
  11   2.0000     -10.637682      -289.4661
  12   2.0000     -10.637358      -289.4572
  13   2.0000     -10.635652      -289.4108
  14   2.0000     -10.635054      -289.3945
  15   2.0000     -10.633295      -289.3467
  16   2.0000     -10.630772      -289.2780
  17   2.0000     -10.628348      -289.2121
  18   2.0000     -10.628101      -289.2053
  19   2.0000     -10.628097      -289.2052
  20   2.0000     -10.627517      -289.1894
  21   2.0000      -7.212805      -196.2704
  22   2.0000      -1.359696       -36.9992
  23   2.0000      -1.323999       -36.0278
  24   2.0000      -1.255263       -34.1574
  25   2.0000      -1.224525       -33.3210
  26   2.0000      -1.006260       -27.3817
  27   2.0000      -1.004432       -27.3320
  28   2.0000      -0.952711       -25.9246
  29   2.0000      -0.923840       -25.1390
  30   2.0000      -0.895906       -24.3788
  31   2.0000      -0.877005       -23.8645
  32   2.0000      -0.876169       -23.8418
  33   2.0000      -0.864513       -23.5246
  34   2.0000      -0.803644       -21.8683
  35   2.0000      -0.768030       -20.8992
  36   2.0000      -0.729571       -19.8526
  37   2.0000      -0.713390       -19.4123
  38   2.0000      -0.712825       -19.3969
  39   2.0000      -0.700238       -19.0544
  40   2.0000      -0.663774       -18.0622
  41   2.0000      -0.645629       -17.5685
  42   2.0000      -0.630558       -17.1584
  43   2.0000      -0.613077       -16.6827
  44   2.0000      -0.604374       -16.4458
  45   2.0000      -0.595934       -16.2162
  46   2.0000      -0.578244       -15.7348
  47   2.0000      -0.566097       -15.4043
  48   2.0000      -0.557416       -15.1681
  49   2.0000      -0.546041       -14.8585
  50   2.0000      -0.537663       -14.6305
  51   2.0000      -0.525881       -14.3099
  52   2.0000      -0.519894       -14.1470
  53   2.0000      -0.515481       -14.0270
  54   2.0000      -0.515244       -14.0205
  55   2.0000      -0.506862       -13.7924
  56   2.0000      -0.504066       -13.7163
  57   2.0000      -0.496748       -13.5172
  58   2.0000      -0.494665       -13.4605
  59   2.0000      -0.474775       -12.9193
  60   2.0000      -0.470851       -12.8125
  61   2.0000      -0.465783       -12.6746
  62   2.0000      -0.457211       -12.4413
  63   2.0000      -0.439075       -11.9478
  64   2.0000      -0.434032       -11.8106
  65   2.0000      -0.432337       -11.7645
  66   2.0000      -0.422814       -11.5054
  67   2.0000      -0.418272       -11.3818
  68   2.0000      -0.404189       -10.9985
  69   2.0000      -0.386945       -10.5293
  70   2.0000      -0.354607        -9.6494
  71   2.0000      -0.339411        -9.2358
  72   2.0000      -0.307894        -8.3782
  73   2.0000      -0.307463        -8.3665
  74   2.0000      -0.306788        -8.3481
  75   2.0000      -0.277214        -7.5434
  76   0.0000      -0.067837        -1.8459
  77   0.0000      -0.002094        -0.0570
  78   0.0000       0.015694         0.4271
  79   0.0000       0.021970         0.5978
  80   0.0000       0.028519         0.7760

MULLIKEN ATOMIC CHARGES
-----------------------
   0 F :   -0.721659
   1 B :    1.654916
   2 F :   -0.744619
   3 O :   -1.010371
   4 C :    0.819152
   5 C :    0.946240
   6 C :   -1.043474
   7 C :    2.172912
   8 C :   -0.593417
   9 C :   -0.463442
  10 C :   -0.206528
  11 C :   -0.492009
  12 C :   -0.579285
  13 C :   -0.996323
  14 C :    0.659056
  15 C :    1.752116
  16 C :   -0.451229
  17 C :   -0.578524
  18 C :   -0.170751
  19 C :   -0.526136
  20 C :   -0.448305
  21 O :   -0.990005
  22 H :    0.163476
  23 H :    0.231522
  24 H :    0.225885
  25 H :    0.233184
  26 H :    0.160905
  27 H :    0.020029
  28 H :    0.160081
  29 H :    0.237261
  30 H :    0.236547
  31 H :    0.234709
  32 H :    0.108084
Sum of atomic charges:   -0.0000000

LOEWDIN ATOMIC CHARGES
----------------------
   0 F :    0.425073
   1 B :   -1.867999
   2 F :    0.426753
   3 O :    0.622751
   4 C :   -0.537160
   5 C :    0.085870
   6 C :    0.058376
   7 C :   -0.386711
   8 C :   -0.041337
   9 C :   -0.111507
  10 C :   -0.124506
  11 C :   -0.110774
  12 C :   -0.039946
  13 C :    0.097248
  14 C :   -0.484498
  15 C :   -0.306054
  16 C :   -0.030304
  17 C :   -0.100093
  18 C :   -0.116848
  19 C :   -0.103123
  20 C :   -0.039164
  21 O :    0.628538
  22 H :    0.195181
  23 H :    0.174002
  24 H :    0.174581
  25 H :    0.174231
  26 H :    0.195594
  27 H :    0.214049
  28 H :    0.203331
  29 H :    0.174460
  30 H :    0.175535
  31 H :    0.174213
  32 H :    0.200238

  Mayer bond orders larger than 0.100000
B(  0-F ,  1-B ) :   0.2827 B(  0-F , 13-C ) :   0.1245 B(  0-F , 14-C ) :  -0.1251
B(  0-F , 21-O ) :   0.1859 B(  1-B ,  2-F ) :   0.2205 B(  1-B ,  3-O ) :   0.5190
B(  1-B , 21-O ) :   0.5012 B(  2-F ,  3-O ) :   0.1928 B(  2-F ,  4-C ) :  -0.1157
B(  2-F ,  5-C ) :   0.1203 B(  2-F , 21-O ) :   0.1308 B(  3-O ,  4-C ) :   0.6776
B(  3-O ,  6-C ) :  -0.1069 B(  3-O , 13-C ) :   0.2419 B(  3-O , 21-O ) :  -0.1549
B(  4-C ,  5-C ) :  -0.3159 B(  4-C ,  6-C ) :   0.2466 B(  4-C ,  8-C ) :   0.1707
B(  4-C , 12-C ) :   0.1733 B(  4-C , 13-C ) :   0.6790 B(  4-C , 14-C ) :  -0.2497
B(  4-C , 15-C ) :   0.1415 B(  4-C , 27-H ) :  -0.1816 B(  5-C ,  6-C ) :   3.1474
B(  5-C ,  7-C ) :  -0.3349 B(  5-C ,  8-C ) :   0.1528 B(  5-C ,  9-C ) :  -0.2529
B(  5-C , 10-C ) :   0.1660 B(  5-C , 11-C ) :  -0.1996 B(  5-C , 13-C ) :   0.3575
B(  5-C , 16-C ) :   0.1908 B(  5-C , 20-C ) :  -0.1083 B(  5-C , 21-O ) :   0.1167
B(  6-C ,  8-C ) :   0.1101 B(  6-C ,  9-C ) :   0.2348 B(  6-C , 11-C ) :   0.2224
B(  6-C , 12-C ) :   0.3347 B(  6-C , 13-C ) :  -0.5538 B(  6-C , 15-C ) :  -0.1157
B(  6-C , 16-C ) :  -0.1904 B(  6-C , 20-C ) :   0.1794 B(  6-C , 21-O ) :  -0.1008
B(  7-C ,  8-C ) :   0.3102 B(  7-C ,  9-C ) :  -0.2383 B(  7-C , 10-C ) :  -0.1985
B(  7-C , 11-C ) :  -0.1975 B(  7-C , 12-C ) :   0.2263 B(  7-C , 13-C ) :   0.1143
B(  7-C , 22-H ) :  -0.1085 B(  7-C , 26-H ) :  -0.1475 B(  8-C ,  9-C ) :   1.3501
B(  8-C , 22-H ) :   1.0904 B(  9-C , 10-C ) :   1.1672 B(  9-C , 23-H ) :   0.9811
B( 10-C , 11-C ) :   1.1489 B( 10-C , 24-H ) :   0.9747 B( 11-C , 12-C ) :   1.3577
B( 11-C , 25-H ) :   0.9790 B( 12-C , 26-H ) :   1.1063 B( 13-C , 14-C ) :   1.0170
B( 13-C , 15-C ) :  -0.1344 B( 13-C , 16-C ) :   0.1702 B( 13-C , 19-C ) :  -0.1035
B( 13-C , 27-H ) :   1.4609 B( 14-C , 15-C ) :   0.1056 B( 14-C , 18-C ) :   0.1040
B( 14-C , 19-C ) :   0.1203 B( 14-C , 21-O ) :   0.6922 B( 14-C , 27-H ) :  -0.1800
B( 15-C , 16-C ) :   0.6096 B( 15-C , 17-C ) :  -0.1764 B( 15-C , 19-C ) :  -0.2720
B( 15-C , 20-C ) :   0.6827 B( 15-C , 28-H ) :  -0.1252 B( 16-C , 17-C ) :   1.2610
B( 16-C , 20-C ) :  -0.1187 B( 16-C , 28-H ) :   1.1145 B( 17-C , 18-C ) :   1.1174
B( 17-C , 29-H ) :   0.9643 B( 18-C , 19-C ) :   1.1907 B( 18-C , 30-H ) :   0.9648
B( 19-C , 20-C ) :   1.2934 B( 19-C , 31-H ) :   0.9698 B( 20-C , 32-H ) :   1.1406

MP2 TOTAL ENERGY:    -1029.197064601 Eh

-----------------------------------------------------------------------------
         ABSORPTION SPECTRUM VIA TRANSITION ELECTRIC DIPOLE MOMENTS
-----------------------------------------------------------------------------
State   Energy    Wavelength  fosc         T2        TX        TY        TZ
        (cm-1)      (nm)                 (au**2)    (au)      (au)      (au)
-----------------------------------------------------------------------------
   1   26636.4    375.4   1.503563173  18.58322  -4.21535  -0.90207  -0.01814
   2   32328.4    309.3   0.047021073   0.47883  -0.41117  -0.38852  -0.39853
   3   36638.3    272.9   0.002794971   0.02511  -0.14828  -0.04827  -0.02822
   4   34153.2    292.8   0.236181603   2.27662   0.21240  -0.72543  -1.30585
   5   34059.0    293.6   0.029914751   0.28915   0.24508  -0.12984  -0.46069
   6   37771.3    264.8   0.006836324   0.05958  -0.20005   0.04290   0.13313
   7   41476.8    241.1   0.012534456   0.09949   0.19058   0.20818   0.14082
   8   39720.3    251.8   0.000866112   0.00718  -0.01281  -0.01707  -0.08199
   9   42662.7    234.4   0.026128229   0.20162   0.21440  -0.10303  -0.38084
  10   44002.7    227.3   0.011612531   0.08688  -0.06835   0.15164   0.24334

Dispersion correction           -0.032296356
FINAL SINGLE POINT ENERGY     -1027.883773283400

DIPOLE MOMENT
-------------
                                X             Y             Z
Electronic contribution:      4.04430      10.93949      16.73039
Nuclear contribution   :     -4.50118     -13.47211     -20.74127
                        -----------------------------------------
Total Dipole Moment    :     -0.45687      -2.53263      -4.01088
                        -----------------------------------------
Magnitude (a.u.)       :      4.76551
Magnitude (Debye)      :     12.11296

Rotational constants in cm-1:     0.015886     0.003876     0.003177
Rotational constants in MHz :   476.242773   116.205876    95.257106

                             ****ORCA TERMINATED NORMALLY****
TOTAL RUN TIME: 0 days 12 hours 47 minutes 34 seconds 885 msec
