                         Program Version 5.0.2 -  RELEASE  -
|  1> ! pbe0 aug-cc-PVTZ RIJCOSX Opt
|  2> %maxcore 4000
|  3> %basis
|  4>  AuxJ "aug-cc-PVTZ/JK"
|  5>  AuxC "aug-cc-PVTZ/C"
|  6>  newGTO H "cc-PVTZ" end
|  7>  newAuxJGTO H "cc-PVTZ/JK" end
|  8>  newAuxCGTO H "cc-PVTZ/C" end
|  9> end
| 10> %cpcm
| 11>  SMD true
| 12>  SMDsolvent "dichloromethane"
| 13> end
| 14> %pal nprocs 4 end
| 15> * xyz 0 1
| 16> F          0.72380        3.39900        2.61910
| 17> B          0.91350        2.05130        2.60710
| 18> F          1.14070        1.54790        3.85390
| 19> O         -0.32270        1.40010        2.05040
| 20> C         -0.27780        0.65900        1.00080
| 21> C         -1.49040        0.07470        0.56860
| 22> C         -2.54740       -0.40390        0.22560
| 23> C         -3.76600       -0.97090       -0.19280
| 24> C         -3.84740       -1.64970       -1.41190
| 25> C         -5.04980       -2.19760       -1.81280
| 26> C         -6.17350       -2.07890       -1.00860
| 27> C         -6.09630       -1.40760        0.20250
| 28> C         -4.90110       -0.85190        0.61430
| 29> C          0.89140        0.40810        0.27860
| 30> C          2.07760        0.99670        0.71400
| 31> C          3.35730        0.77730        0.02690
| 32> C          4.54130        1.00820        0.73150
| 33> C          5.76580        0.80880        0.12520
| 34> C          5.82630        0.38700       -1.19380
| 35> C          4.65640        0.16970       -1.90530
| 36> C          3.42730        0.36000       -1.30310
| 37> O          2.11970        1.75080        1.75630
| 38> H         -2.96700       -1.73660       -2.03120
| 39> H         -5.11380       -2.72020       -2.75560
| 40> H         -7.11080       -2.51020       -1.32670
| 41> H         -6.97290       -1.31740        0.82620
| 42> H         -4.82870       -0.32640        1.55440
| 43> H          0.85920       -0.24490       -0.57350
| 44> H          4.47670        1.33690        1.75720
| 45> H          6.67530        0.98420        0.67950
| 46> H          6.78320        0.23290       -1.66970
| 47> H          4.70400       -0.14690       -2.93650
| 48> H          2.52610        0.21060       -1.87670
| 49> *
| 50>
| 51>
| 52> $new_job
| 53> ! pbe0 aug-cc-PVTZ RIJCOSX SP
| 54> %maxcore 4000
| 55> %basis
| 56>  AuxJ "aug-cc-PVTZ/JK"
| 57>  AuxC "aug-cc-PVTZ/C"
| 58>  newGTO H "cc-PVTZ" end
| 59>  newAuxJGTO H "cc-PVTZ/JK" end
| 60>  newAuxCGTO H "cc-PVTZ/C" end
| 61> end
| 62> %cpcm
| 63>  SMD true
| 64>  SMDsolvent "dichloromethane"
| 65> end
| 66> %pal nprocs 4 end
| 67> %tddft
| 68>  nroots 10
| 69>  maxdim 7
| 70> end
| 71> * xyzfile 0 1
| 72>
| 73>                          ****END OF INPUT****
 Total Charge           Charge          ....    0
 Multiplicity           Mult            ....    1
 Number of Electrons    NEL             ....  152
FINAL SINGLE POINT ENERGY     -1028.791802690032
FINAL SINGLE POINT ENERGY     -1028.792715466211
FINAL SINGLE POINT ENERGY     -1028.793055842645
FINAL SINGLE POINT ENERGY     -1028.793146785369
FINAL SINGLE POINT ENERGY     -1028.793183272697
FINAL SINGLE POINT ENERGY     -1028.793201015129
FINAL SINGLE POINT ENERGY     -1028.793194169184
FINAL SINGLE POINT ENERGY     -1028.793173228270
FINAL SINGLE POINT ENERGY     -1028.793159954495
FINAL SINGLE POINT ENERGY     -1028.793155908090
FINAL SINGLE POINT ENERGY     -1028.793198136806
FINAL SINGLE POINT ENERGY     -1028.793258213421
FINAL SINGLE POINT ENERGY     -1028.793298066082
FINAL SINGLE POINT ENERGY     -1028.793316750494
FINAL SINGLE POINT ENERGY     -1028.793297131431
FINAL SINGLE POINT ENERGY     -1028.793320555304
FINAL SINGLE POINT ENERGY     -1028.793320995928
FINAL SINGLE POINT ENERGY     -1028.793319746936
                    ***********************HURRAY********************
FINAL SINGLE POINT ENERGY     -1028.793317168467

CARTESIAN COORDINATES (ANGSTROEM)
---------------------------------
  F      0.755836    3.166200    2.567714
  B      0.979547    1.814866    2.753399
  F      1.201962    1.512997    4.074816
  O     -0.217665    1.066505    2.288035
  C     -0.248531    0.545347    1.098822
  C     -1.488626    0.030169    0.665225
  C     -2.539597   -0.418492    0.269617
  C     -3.768357   -0.939614   -0.197136
  C     -3.846709   -1.518418   -1.470689
  C     -5.052249   -2.020902   -1.924875
  C     -6.183635   -1.953734   -1.120431
  C     -6.110966   -1.382430    0.144484
  C     -4.911581   -0.875465    0.610031
  C      0.872775    0.464704    0.287656
  C      2.100816    0.878385    0.795197
  C      3.363319    0.724697    0.073417
  C      4.499002    1.399868    0.531309
  C      5.700668    1.276378   -0.142135
  C      5.785950    0.472408   -1.271911
  C      4.664586   -0.209033   -1.728330
  C      3.458433   -0.084237   -1.063341
  O      2.179274    1.419916    1.967913
  H     -2.960098   -1.566492   -2.090456
  H     -5.111385   -2.466810   -2.910275
  H     -7.126247   -2.347878   -1.481190
  H     -6.994297   -1.330837    0.769215
  H     -4.845529   -0.426633    1.593260
  H      0.780404    0.035274   -0.695529
  H      4.428450    2.028582    1.408992
  H      6.574273    1.808849    0.213537
  H      6.729123    0.373789   -1.796389
  H      4.732414   -0.843721   -2.603372
  H      2.598642   -0.634138   -1.422682

 Multiplicity           Mult            ....    1
 Number of Electrons    NEL             ....  152
 Basis Dimension        Dim             .... 1166

ORBITAL ENERGIES
----------------

  NO   OCC          E(Eh)            E(eV)
   0   2.0000     -24.738798      -673.1769
   1   2.0000     -24.737571      -673.1435
   2   2.0000     -19.257828      -524.0321
   3   2.0000     -19.257488      -524.0229
   4   2.0000     -10.358098      -281.8582
   5   2.0000     -10.347314      -281.5647
   6   2.0000     -10.270061      -279.4626
   7   2.0000     -10.268417      -279.4178
   8   2.0000     -10.258228      -279.1406
   9   2.0000     -10.250726      -278.9364
  10   2.0000     -10.248104      -278.8651
  11   2.0000     -10.248033      -278.8632
  12   2.0000     -10.247713      -278.8544
  13   2.0000     -10.245127      -278.7841
  14   2.0000     -10.244410      -278.7646
  15   2.0000     -10.244147      -278.7574
  16   2.0000     -10.243640      -278.7436
  17   2.0000     -10.239910      -278.6421
  18   2.0000     -10.239695      -278.6363
  19   2.0000     -10.239386      -278.6279
  20   2.0000     -10.238870      -278.6138
  21   2.0000      -6.883491      -187.3093
  22   2.0000      -1.225310       -33.3424
  23   2.0000      -1.189743       -32.3746
  24   2.0000      -1.137756       -30.9599
  25   2.0000      -1.109059       -30.1790
  26   2.0000      -0.908758       -24.7286
  27   2.0000      -0.906188       -24.6586
  28   2.0000      -0.857129       -23.3237
  29   2.0000      -0.831102       -22.6154
  30   2.0000      -0.805962       -21.9313
  31   2.0000      -0.787560       -21.4306
  32   2.0000      -0.787302       -21.4236
  33   2.0000      -0.776148       -21.1201
  34   2.0000      -0.721978       -19.6460
  35   2.0000      -0.690826       -18.7983
  36   2.0000      -0.654687       -17.8149
  37   2.0000      -0.639942       -17.4137
  38   2.0000      -0.639180       -17.3930
  39   2.0000      -0.627303       -17.0698
  40   2.0000      -0.596075       -16.2200
  41   2.0000      -0.578954       -15.7541
  42   2.0000      -0.566945       -15.4274
  43   2.0000      -0.542428       -14.7602
  44   2.0000      -0.536335       -14.5944
  45   2.0000      -0.525670       -14.3042
  46   2.0000      -0.512481       -13.9453
  47   2.0000      -0.502153       -13.6643
  48   2.0000      -0.493456       -13.4276
  49   2.0000      -0.488093       -13.2817
  50   2.0000      -0.477590       -12.9959
  51   2.0000      -0.465612       -12.6700
  52   2.0000      -0.457596       -12.4518
  53   2.0000      -0.456731       -12.4283
  54   2.0000      -0.454349       -12.3635
  55   2.0000      -0.446963       -12.1625
  56   2.0000      -0.446689       -12.1550
  57   2.0000      -0.429271       -11.6811
  58   2.0000      -0.422091       -11.4857
  59   2.0000      -0.417209       -11.3528
  60   2.0000      -0.409307       -11.1378
  61   2.0000      -0.403680       -10.9847
  62   2.0000      -0.397008       -10.8031
  63   2.0000      -0.390008       -10.6127
  64   2.0000      -0.379480       -10.3262
  65   2.0000      -0.378462       -10.2985
  66   2.0000      -0.370907       -10.0929
  67   2.0000      -0.364886        -9.9291
  68   2.0000      -0.349928        -9.5220
  69   2.0000      -0.346210        -9.4208
  70   2.0000      -0.316538        -8.6134
  71   2.0000      -0.305945        -8.3252
  72   2.0000      -0.284010        -7.7283
  73   2.0000      -0.283518        -7.7149
  74   2.0000      -0.282844        -7.6966
  75   2.0000      -0.255977        -6.9655
  76   0.0000      -0.112494        -3.0611
  77   0.0000      -0.050840        -1.3834
  78   0.0000      -0.020940        -0.5698
  79   0.0000      -0.020566        -0.5596
  80   0.0000      -0.007011        -0.1908

MULLIKEN ATOMIC CHARGES
-----------------------
   0 F :   -0.693814
   1 B :    1.537123
   2 F :   -0.719034
   3 O :   -0.933862
   4 C :    0.885686
   5 C :    0.854113
   6 C :   -0.943565
   7 C :    1.856702
   8 C :   -0.613782
   9 C :   -0.389600
  10 C :   -0.251023
  11 C :   -0.413491
  12 C :   -0.604656
  13 C :   -1.002049
  14 C :    0.772275
  15 C :    1.392234
  16 C :   -0.495230
  17 C :   -0.467999
  18 C :   -0.204446
  19 C :   -0.432841
  20 C :   -0.498749
  21 O :   -0.902340
  22 H :    0.184997
  23 H :    0.255457
  24 H :    0.248618
  25 H :    0.256631
  26 H :    0.187461
  27 H :    0.046867
  28 H :    0.184869
  29 H :    0.259355
  30 H :    0.252694
  31 H :    0.256319
  32 H :    0.135081
Sum of atomic charges:   -0.0000000

LOEWDIN ATOMIC CHARGES
----------------------
   0 F :    0.443130
   1 B :   -1.887841
   2 F :    0.442807
   3 O :    0.633282
   4 C :   -0.545816
   5 C :    0.082572
   6 C :    0.058775
   7 C :   -0.387559
   8 C :   -0.043694
   9 C :   -0.111733
  10 C :   -0.125551
  11 C :   -0.111033
  12 C :   -0.042350
  13 C :    0.090997
  14 C :   -0.493810
  15 C :   -0.311308
  16 C :   -0.033915
  17 C :   -0.101873
  18 C :   -0.119470
  19 C :   -0.104732
  20 C :   -0.042270
  21 O :    0.639345
  22 H :    0.196519
  23 H :    0.175891
  24 H :    0.175816
  25 H :    0.176079
  26 H :    0.196944
  27 H :    0.216669
  28 H :    0.204089
  29 H :    0.176178
  30 H :    0.176477
  31 H :    0.175987
  32 H :    0.201399

  Mayer bond orders larger than 0.100000
B(  0-F ,  1-B ) :   0.2983 B(  0-F , 13-C ) :   0.1159 B(  0-F , 14-C ) :  -0.1334
B(  0-F , 21-O ) :   0.1844 B(  1-B ,  2-F ) :   0.2317 B(  1-B ,  3-O ) :   0.5519
B(  1-B , 21-O ) :   0.5549 B(  2-F ,  3-O ) :   0.1920 B(  2-F ,  4-C ) :  -0.1189
B(  2-F ,  5-C ) :   0.1215 B(  2-F , 21-O ) :   0.1305 B(  3-O ,  4-C ) :   0.6470
B(  3-O , 13-C ) :   0.2480 B(  3-O , 21-O ) :  -0.1456 B(  4-C ,  6-C ) :   0.1045
B(  4-C ,  8-C ) :   0.1128 B(  4-C , 12-C ) :   0.1401 B(  4-C , 13-C ) :   0.7415
B(  4-C , 14-C ) :  -0.2486 B(  4-C , 15-C ) :   0.1675 B(  4-C , 27-H ) :  -0.1246
B(  5-C ,  6-C ) :   2.9210 B(  5-C ,  7-C ) :  -0.4229 B(  5-C ,  8-C ) :   0.1123
B(  5-C ,  9-C ) :  -0.1628 B(  5-C , 10-C ) :   0.1349 B(  5-C , 11-C ) :  -0.1426
B(  5-C , 13-C ) :   0.3024 B(  6-C ,  7-C ) :   0.1816 B(  6-C ,  8-C ) :   0.1097
B(  6-C ,  9-C ) :   0.1101 B(  6-C , 11-C ) :   0.1128 B(  6-C , 12-C ) :   0.2643
B(  6-C , 13-C ) :  -0.4622 B(  6-C , 20-C ) :   0.1103 B(  7-C ,  8-C ) :   0.5532
B(  7-C ,  9-C ) :  -0.1382 B(  7-C , 10-C ) :  -0.2131 B(  7-C , 11-C ) :  -0.1131
B(  7-C , 12-C ) :   0.5000 B(  8-C ,  9-C ) :   1.3638 B(  8-C , 22-H ) :   1.0106
B(  9-C , 10-C ) :   1.2705 B(  9-C , 23-H ) :   0.9047 B( 10-C , 11-C ) :   1.2677
B( 10-C , 24-H ) :   0.9062 B( 11-C , 12-C ) :   1.3807 B( 11-C , 25-H ) :   0.9003
B( 12-C , 26-H ) :   1.0155 B( 13-C , 14-C ) :   1.0432 B( 13-C , 15-C ) :  -0.1197
B( 13-C , 16-C ) :   0.1348 B( 13-C , 27-H ) :   1.3916 B( 14-C , 15-C ) :   0.1702
B( 14-C , 18-C ) :   0.1132 B( 14-C , 21-O ) :   0.6767 B( 14-C , 27-H ) :  -0.1576
B( 15-C , 16-C ) :   0.8042 B( 15-C , 17-C ) :  -0.1310 B( 15-C , 18-C ) :  -0.1232
B( 15-C , 19-C ) :  -0.2042 B( 15-C , 20-C ) :   0.8917 B( 16-C , 17-C ) :   1.3090
B( 16-C , 28-H ) :   1.0282 B( 17-C , 18-C ) :   1.2371 B( 17-C , 29-H ) :   0.8944
B( 18-C , 19-C ) :   1.2708 B( 18-C , 30-H ) :   0.9008 B( 19-C , 20-C ) :   1.3344
B( 19-C , 31-H ) :   0.8987 B( 20-C , 32-H ) :   1.0498

-----------------------------------------------------------------------------
         ABSORPTION SPECTRUM VIA TRANSITION ELECTRIC DIPOLE MOMENTS
-----------------------------------------------------------------------------
State   Energy    Wavelength  fosc         T2        TX        TY        TZ
        (cm-1)      (nm)                 (au**2)    (au)      (au)      (au)
-----------------------------------------------------------------------------
   1   26751.4    373.8   1.615841658  19.88508  -4.35239  -0.96680  -0.08392
   2   31541.3    317.0   0.027550850   0.28756  -0.34159  -0.29830  -0.28617
   3   32617.2    306.6   0.015562647   0.15708  -0.18438   0.10114   0.33593
   4   33773.3    296.1   0.141835855   1.38257   0.32557  -0.50796  -1.00924
   5   34048.4    293.7   0.047386571   0.45818   0.30601  -0.24313  -0.55265
   6   38420.2    260.3   0.010940972   0.09375  -0.20325  -0.15298  -0.17041
   7   39889.3    250.7   0.000771427   0.00637  -0.05593  -0.05603  -0.00994
   8   40958.3    244.2   0.128049281   1.02923   0.41484   0.56803   0.73108
   9   42948.3    232.8   0.000394302   0.00302   0.02226  -0.01686  -0.04736
  10   43601.0    229.4   0.003850221   0.02907  -0.15723  -0.06394  -0.01614

FINAL SINGLE POINT ENERGY     -1028.671428746421

DIPOLE MOMENT
-------------
                                X             Y             Z
Electronic contribution:      3.99778      10.85457      16.92881
Nuclear contribution   :     -4.52080     -13.31040     -20.85534
                        -----------------------------------------
Total Dipole Moment    :     -0.52302      -2.45583      -3.92653
                        -----------------------------------------
Magnitude (a.u.)       :      4.66072
Magnitude (Debye)      :     11.84660

Rotational constants in cm-1:     0.015863     0.003868     0.003171
Rotational constants in MHz :   475.569343   115.966230    95.061109

                             ****ORCA TERMINATED NORMALLY****
TOTAL RUN TIME: 0 days 9 hours 15 minutes 35 seconds 718 msec
