                         Program Version 5.0.2 -  RELEASE  -
|  1> ! wb97x-d3 aug-cc-PVTZ RIJCOSX Opt
|  2> %maxcore 4000
|  3> %basis
|  4>  AuxJ "aug-cc-PVTZ/JK"
|  5>  AuxC "aug-cc-PVTZ/C"
|  6>  newGTO H "cc-PVTZ" end
|  7>  newAuxJGTO H "cc-PVTZ/JK" end
|  8>  newAuxCGTO H "cc-PVTZ/C" end
|  9> end
| 10> %cpcm
| 11>  SMD true
| 12>  SMDsolvent "dichloromethane"
| 13> end
| 14> %pal nprocs 4 end
| 15> * xyz 0 1
| 16> F          0.72380        3.39900        2.61910
| 17> B          0.91350        2.05130        2.60710
| 18> F          1.14070        1.54790        3.85390
| 19> O         -0.32270        1.40010        2.05040
| 20> C         -0.27780        0.65900        1.00080
| 21> C         -1.49040        0.07470        0.56860
| 22> C         -2.54740       -0.40390        0.22560
| 23> C         -3.76600       -0.97090       -0.19280
| 24> C         -3.84740       -1.64970       -1.41190
| 25> C         -5.04980       -2.19760       -1.81280
| 26> C         -6.17350       -2.07890       -1.00860
| 27> C         -6.09630       -1.40760        0.20250
| 28> C         -4.90110       -0.85190        0.61430
| 29> C          0.89140        0.40810        0.27860
| 30> C          2.07760        0.99670        0.71400
| 31> C          3.35730        0.77730        0.02690
| 32> C          4.54130        1.00820        0.73150
| 33> C          5.76580        0.80880        0.12520
| 34> C          5.82630        0.38700       -1.19380
| 35> C          4.65640        0.16970       -1.90530
| 36> C          3.42730        0.36000       -1.30310
| 37> O          2.11970        1.75080        1.75630
| 38> H         -2.96700       -1.73660       -2.03120
| 39> H         -5.11380       -2.72020       -2.75560
| 40> H         -7.11080       -2.51020       -1.32670
| 41> H         -6.97290       -1.31740        0.82620
| 42> H         -4.82870       -0.32640        1.55440
| 43> H          0.85920       -0.24490       -0.57350
| 44> H          4.47670        1.33690        1.75720
| 45> H          6.67530        0.98420        0.67950
| 46> H          6.78320        0.23290       -1.66970
| 47> H          4.70400       -0.14690       -2.93650
| 48> H          2.52610        0.21060       -1.87670
| 49> *
| 50>
| 51>
| 52> $new_job
| 53> ! wb97x-d3 aug-cc-PVTZ RIJCOSX SP
| 54> %maxcore 4000
| 55> %basis
| 56>  AuxJ "aug-cc-PVTZ/JK"
| 57>  AuxC "aug-cc-PVTZ/C"
| 58>  newGTO H "cc-PVTZ" end
| 59>  newAuxJGTO H "cc-PVTZ/JK" end
| 60>  newAuxCGTO H "cc-PVTZ/C" end
| 61> end
| 62> %cpcm
| 63>  SMD true
| 64>  SMDsolvent "dichloromethane"
| 65> end
| 66> %pal nprocs 4 end
| 67> %tddft
| 68>  nroots 10
| 69>  maxdim 7
| 70> end
| 71> * xyzfile 0 1
| 72>
| 73>                          ****END OF INPUT****
 Total Charge           Charge          ....    0
 Multiplicity           Mult            ....    1
 Number of Electrons    NEL             ....  152
Dispersion correction           -0.011253522
FINAL SINGLE POINT ENERGY     -1029.653890647701
Dispersion correction            ... done
Dispersion correction           -0.011236844
FINAL SINGLE POINT ENERGY     -1029.655054268499
Dispersion correction            ... done
Dispersion correction           -0.011225108
FINAL SINGLE POINT ENERGY     -1029.655366750974
Dispersion correction            ... done
FINAL SINGLE POINT ENERGY     -1029.655425154554
FINAL SINGLE POINT ENERGY     -1029.655456748297
FINAL SINGLE POINT ENERGY     -1029.655455767964
FINAL SINGLE POINT ENERGY     -1029.655454096017
FINAL SINGLE POINT ENERGY     -1029.655427288726
FINAL SINGLE POINT ENERGY     -1029.655394847853
FINAL SINGLE POINT ENERGY     -1029.655328718758
FINAL SINGLE POINT ENERGY     -1029.655442025550
FINAL SINGLE POINT ENERGY     -1029.655548789480
FINAL SINGLE POINT ENERGY     -1029.655617987868
FINAL SINGLE POINT ENERGY     -1029.655617959939
FINAL SINGLE POINT ENERGY     -1029.655661193367
FINAL SINGLE POINT ENERGY     -1029.655686013939
Dispersion correction           -0.011280862
FINAL SINGLE POINT ENERGY     -1029.655683865936
Dispersion correction            ... done
Dispersion correction           -0.011278252
FINAL SINGLE POINT ENERGY     -1029.655687141814
Dispersion correction            ... done
                    ***********************HURRAY********************
Dispersion correction           -0.011278634
FINAL SINGLE POINT ENERGY     -1029.655686092520

CARTESIAN COORDINATES (ANGSTROEM)
---------------------------------
  F      0.770681    3.146287    2.607676
  B      0.991063    1.790349    2.783999
  F      1.214455    1.472368    4.103774
  O     -0.209827    1.045406    2.304327
  C     -0.240591    0.542525    1.111723
  C     -1.493646    0.036247    0.671879
  C     -2.538128   -0.410122    0.276347
  C     -3.775742   -0.932262   -0.202376
  C     -3.852110   -1.476284   -1.486893
  C     -5.056006   -1.975230   -1.951246
  C     -6.183403   -1.937709   -1.141151
  C     -6.109495   -1.400968    0.137480
  C     -4.910810   -0.898021    0.611033
  C      0.874418    0.470676    0.296606
  C      2.104591    0.869979    0.811135
  C      3.370012    0.717570    0.080988
  C      4.477252    1.473605    0.467605
  C      5.671719    1.354539   -0.219633
  C      5.774293    0.471932   -1.286647
  C      4.679852   -0.292683   -1.667234
  C      3.479849   -0.170255   -0.990066
  O      2.190178    1.395897    1.985976
  H     -2.967646   -1.500452   -2.109700
  H     -5.115677   -2.394723   -2.946867
  H     -7.123892   -2.327042   -1.509382
  H     -6.990085   -1.373029    0.765686
  H     -4.843678   -0.474478    1.604356
  H      0.780880    0.058897   -0.693012
  H      4.392265    2.162950    1.296316
  H      6.524455    1.951546    0.075649
  H      6.711316    0.377264   -1.820480
  H      4.763794   -0.990298   -2.490006
  H      2.639660   -0.784379   -1.283962

 Multiplicity           Mult            ....    1
 Number of Electrons    NEL             ....  152
 Basis Dimension        Dim             .... 1166

ORBITAL ENERGIES
----------------

  NO   OCC          E(Eh)            E(eV)
   0   2.0000     -24.754790      -673.6121
   1   2.0000     -24.753300      -673.5715
   2   2.0000     -19.286852      -524.8219
   3   2.0000     -19.286747      -524.8191
   4   2.0000     -10.420122      -283.5459
   5   2.0000     -10.408877      -283.2399
   6   2.0000     -10.321466      -280.8614
   7   2.0000     -10.321016      -280.8491
   8   2.0000     -10.310195      -280.5547
   9   2.0000     -10.301777      -280.3256
  10   2.0000     -10.300683      -280.2958
  11   2.0000     -10.299256      -280.2570
  12   2.0000     -10.298947      -280.2486
  13   2.0000     -10.298280      -280.2305
  14   2.0000     -10.296459      -280.1809
  15   2.0000     -10.295199      -280.1466
  16   2.0000     -10.294601      -280.1303
  17   2.0000     -10.291428      -280.0440
  18   2.0000     -10.291192      -280.0376
  19   2.0000     -10.290967      -280.0314
  20   2.0000     -10.290925      -280.0303
  21   2.0000      -6.958690      -189.3556
  22   2.0000      -1.310753       -35.6674
  23   2.0000      -1.274855       -34.6906
  24   2.0000      -1.229904       -33.4674
  25   2.0000      -1.201320       -32.6896
  26   2.0000      -1.000599       -27.2277
  27   2.0000      -0.999276       -27.1917
  28   2.0000      -0.950682       -25.8694
  29   2.0000      -0.923106       -25.1190
  30   2.0000      -0.897921       -24.4337
  31   2.0000      -0.880036       -23.9470
  32   2.0000      -0.878712       -23.9110
  33   2.0000      -0.868335       -23.6286
  34   2.0000      -0.812269       -22.1030
  35   2.0000      -0.781990       -21.2790
  36   2.0000      -0.742459       -20.2033
  37   2.0000      -0.729454       -19.8495
  38   2.0000      -0.728835       -19.8326
  39   2.0000      -0.717068       -19.5124
  40   2.0000      -0.684626       -18.6296
  41   2.0000      -0.668340       -18.1865
  42   2.0000      -0.654456       -17.8087
  43   2.0000      -0.630619       -17.1600
  44   2.0000      -0.625565       -17.0225
  45   2.0000      -0.614997       -16.7349
  46   2.0000      -0.599995       -16.3267
  47   2.0000      -0.587670       -15.9913
  48   2.0000      -0.580340       -15.7918
  49   2.0000      -0.571608       -15.5543
  50   2.0000      -0.565532       -15.3889
  51   2.0000      -0.554381       -15.0855
  52   2.0000      -0.543880       -14.7997
  53   2.0000      -0.541402       -14.7323
  54   2.0000      -0.540293       -14.7021
  55   2.0000      -0.531769       -14.4702
  56   2.0000      -0.530641       -14.4395
  57   2.0000      -0.515367       -14.0239
  58   2.0000      -0.509669       -13.8688
  59   2.0000      -0.505204       -13.7473
  60   2.0000      -0.497026       -13.5248
  61   2.0000      -0.489465       -13.3190
  62   2.0000      -0.483818       -13.1653
  63   2.0000      -0.476822       -12.9750
  64   2.0000      -0.461350       -12.5540
  65   2.0000      -0.458719       -12.4824
  66   2.0000      -0.451541       -12.2871
  67   2.0000      -0.446291       -12.1442
  68   2.0000      -0.431975       -11.7546
  69   2.0000      -0.428372       -11.6566
  70   2.0000      -0.397816       -10.8251
  71   2.0000      -0.382687       -10.4134
  72   2.0000      -0.356152        -9.6914
  73   2.0000      -0.356111        -9.6903
  74   2.0000      -0.354059        -9.6344
  75   2.0000      -0.324663        -8.8345
  76   0.0000      -0.047344        -1.2883
  77   0.0000       0.020615         0.5610
  78   0.0000       0.042397         1.1537
  79   0.0000       0.046988         1.2786
  80   0.0000       0.047446         1.2911

MULLIKEN ATOMIC CHARGES
-----------------------
   0 F :   -0.641872
   1 B :    1.424195
   2 F :   -0.673192
   3 O :   -0.923218
   4 C :    1.108779
   5 C :    0.973991
   6 C :   -1.452647
   7 C :    2.448854
   8 C :   -0.702784
   9 C :   -0.397104
  10 C :   -0.205095
  11 C :   -0.420368
  12 C :   -0.708523
  13 C :   -1.246728
  14 C :    0.810144
  15 C :    1.784507
  16 C :   -0.565054
  17 C :   -0.507633
  18 C :   -0.137016
  19 C :   -0.450669
  20 C :   -0.595813
  21 O :   -0.904362
  22 H :    0.154858
  23 H :    0.237657
  24 H :    0.232174
  25 H :    0.238015
  26 H :    0.158251
  27 H :   -0.006820
  28 H :    0.146329
  29 H :    0.246421
  30 H :    0.231143
  31 H :    0.245071
  32 H :    0.098508
Sum of atomic charges:   -0.0000000

LOEWDIN ATOMIC CHARGES
----------------------
   0 F :    0.439697
   1 B :   -1.859835
   2 F :    0.439786
   3 O :    0.630426
   4 C :   -0.538074
   5 C :    0.080448
   6 C :    0.056997
   7 C :   -0.386864
   8 C :   -0.046440
   9 C :   -0.112246
  10 C :   -0.127381
  11 C :   -0.111802
  12 C :   -0.044982
  13 C :    0.089763
  14 C :   -0.488067
  15 C :   -0.312953
  16 C :   -0.034359
  17 C :   -0.101534
  18 C :   -0.119494
  19 C :   -0.104033
  20 C :   -0.042774
  21 O :    0.638435
  22 H :    0.195238
  23 H :    0.173689
  24 H :    0.173960
  25 H :    0.173962
  26 H :    0.195435
  27 H :    0.215584
  28 H :    0.202877
  29 H :    0.174306
  30 H :    0.174865
  31 H :    0.174107
  32 H :    0.201261

  Mayer bond orders larger than 0.100000
B(  0-F ,  1-B ) :   0.3767 B(  0-F , 14-C ) :  -0.1063 B(  0-F , 21-O ) :   0.1684
B(  1-B ,  2-F ) :   0.3119 B(  1-B ,  3-O ) :   0.6135 B(  1-B , 21-O ) :   0.6135
B(  2-F ,  3-O ) :   0.1661 B(  2-F , 21-O ) :   0.1166 B(  3-O ,  4-C ) :   0.8252
B(  3-O ,  5-C ) :  -0.1961 B(  3-O , 13-C ) :   0.1654 B(  3-O , 14-C ) :   0.1049
B(  3-O , 21-O ) :  -0.1218 B(  4-C ,  8-C ) :   0.2061 B(  4-C , 12-C ) :   0.2277
B(  4-C , 13-C ) :   0.4151 B(  4-C , 14-C ) :  -0.1170 B(  4-C , 15-C ) :   0.1418
B(  4-C , 27-H ) :  -0.2580 B(  5-C ,  6-C ) :   2.9221 B(  5-C ,  7-C ) :  -0.3592
B(  5-C ,  9-C ) :  -0.2115 B(  5-C , 10-C ) :   0.1528 B(  5-C , 11-C ) :  -0.1717
B(  5-C , 12-C ) :  -0.2595 B(  5-C , 13-C ) :   0.3027 B(  6-C ,  7-C ) :  -0.4585
B(  6-C ,  8-C ) :   0.4338 B(  6-C ,  9-C ) :   0.1494 B(  6-C , 11-C ) :   0.1390
B(  6-C , 12-C ) :   0.7153 B(  6-C , 13-C ) :  -0.4419 B(  6-C , 16-C ) :  -0.1194
B(  6-C , 26-H ) :   0.1232 B(  7-C ,  9-C ) :  -0.1629 B(  7-C , 10-C ) :  -0.2192
B(  7-C , 11-C ) :  -0.1213 B(  7-C , 13-C ) :   0.1222 B(  7-C , 22-H ) :  -0.1513
B(  7-C , 26-H ) :  -0.1831 B(  8-C ,  9-C ) :   1.2317 B(  8-C , 12-C ) :   0.1038
B(  8-C , 22-H ) :   1.1156 B(  9-C , 10-C ) :   1.1725 B(  9-C , 23-H ) :   0.9639
B( 10-C , 11-C ) :   1.1617 B( 10-C , 24-H ) :   0.9465 B( 11-C , 12-C ) :   1.2598
B( 11-C , 25-H ) :   0.9607 B( 12-C , 26-H ) :   1.1205 B( 13-C , 14-C ) :   0.7563
B( 13-C , 15-C ) :  -0.1368 B( 13-C , 16-C ) :   0.1674 B( 13-C , 20-C ) :   0.1643
B( 13-C , 27-H ) :   1.6040 B( 13-C , 32-H ) :   0.1117 B( 14-C , 15-C ) :   0.1760
B( 14-C , 16-C ) :   0.1098 B( 14-C , 19-C ) :   0.1398 B( 14-C , 20-C ) :  -0.1053
B( 14-C , 21-O ) :   0.8233 B( 14-C , 27-H ) :  -0.2892 B( 14-C , 32-H ) :  -0.1072
B( 15-C , 16-C ) :   0.3924 B( 15-C , 17-C ) :  -0.1592 B( 15-C , 19-C ) :  -0.1946
B( 15-C , 20-C ) :   0.5430 B( 15-C , 21-O ) :  -0.1957 B( 15-C , 28-H ) :  -0.1607
B( 15-C , 32-H ) :  -0.1346 B( 16-C , 17-C ) :   1.1666 B( 16-C , 21-O ) :   0.1177
B( 16-C , 28-H ) :   1.1583 B( 17-C , 18-C ) :   1.1465 B( 17-C , 19-C ) :   0.1133
B( 17-C , 29-H ) :   0.9407 B( 18-C , 19-C ) :   1.1541 B( 18-C , 30-H ) :   0.9530
B( 19-C , 20-C ) :   1.2035 B( 19-C , 31-H ) :   0.9475 B( 20-C , 32-H ) :   1.1805

-----------------------------------------------------------------------------
         ABSORPTION SPECTRUM VIA TRANSITION ELECTRIC DIPOLE MOMENTS
-----------------------------------------------------------------------------
State   Energy    Wavelength  fosc         T2        TX        TY        TZ
        (cm-1)      (nm)                 (au**2)    (au)      (au)      (au)
-----------------------------------------------------------------------------
   1   30112.6    332.1   1.507101059  16.47666   3.97565   0.81861  -0.02669
   2   37955.8    263.5   0.002727512   0.02366   0.14949   0.03549   0.00705
   3   38308.8    261.0   0.057641360   0.49535   0.36786   0.45092   0.39585
   4   39188.8    255.2   0.268627835   2.25665   0.02629  -0.73400  -1.31042
   5   40612.7    246.2   0.026906861   0.21811  -0.21436   0.10658   0.40100
   6   43120.4    231.9   0.004515706   0.03448  -0.04349  -0.07094  -0.16599
   7   43839.1    228.1   0.034758198   0.26102   0.47186  -0.01210  -0.19550
   8   49378.0    202.5   0.009981555   0.06655  -0.19696  -0.16229   0.03765
   9   50156.4    199.4   0.049297763   0.32358   0.08725   0.37161   0.42174
  10   50631.6    197.5   0.150877981   0.98102  -0.45549   0.22791   0.84947

Dispersion correction           -0.011278634
FINAL SINGLE POINT ENERGY     -1029.518482919675

DIPOLE MOMENT
-------------
                                X             Y             Z
Electronic contribution:      4.22426      10.81713      17.25735
Nuclear contribution   :     -4.60326     -13.12795     -21.07534
                        -----------------------------------------
Total Dipole Moment    :     -0.37901      -2.31082      -3.81799
                        -----------------------------------------
Magnitude (a.u.)       :      4.47891
Magnitude (Debye)      :     11.38447

Rotational constants in cm-1:     0.015763     0.003867     0.003171
Rotational constants in MHz :   472.558422   115.937867    95.049485

                             ****ORCA TERMINATED NORMALLY****
TOTAL RUN TIME: 0 days 13 hours 25 minutes 34 seconds 693 msec
