                         Program Version 5.0.2 -  RELEASE  -
|  1> ! x3lyp aug-cc-PVTZ RIJCOSX Opt
|  2> %maxcore 4000
|  3> %basis
|  4>  AuxJ "aug-cc-PVTZ/JK"
|  5>  AuxC "aug-cc-PVTZ/C"
|  6>  newGTO H "cc-PVTZ" end
|  7>  newAuxJGTO H "cc-PVTZ/JK" end
|  8>  newAuxCGTO H "cc-PVTZ/C" end
|  9> end
| 10> %cpcm
| 11>  SMD true
| 12>  SMDsolvent "dichloromethane"
| 13> end
| 14> %pal nprocs 4 end
| 15> * xyz 0 1
| 16> F          0.72380        3.39900        2.61910
| 17> B          0.91350        2.05130        2.60710
| 18> F          1.14070        1.54790        3.85390
| 19> O         -0.32270        1.40010        2.05040
| 20> C         -0.27780        0.65900        1.00080
| 21> C         -1.49040        0.07470        0.56860
| 22> C         -2.54740       -0.40390        0.22560
| 23> C         -3.76600       -0.97090       -0.19280
| 24> C         -3.84740       -1.64970       -1.41190
| 25> C         -5.04980       -2.19760       -1.81280
| 26> C         -6.17350       -2.07890       -1.00860
| 27> C         -6.09630       -1.40760        0.20250
| 28> C         -4.90110       -0.85190        0.61430
| 29> C          0.89140        0.40810        0.27860
| 30> C          2.07760        0.99670        0.71400
| 31> C          3.35730        0.77730        0.02690
| 32> C          4.54130        1.00820        0.73150
| 33> C          5.76580        0.80880        0.12520
| 34> C          5.82630        0.38700       -1.19380
| 35> C          4.65640        0.16970       -1.90530
| 36> C          3.42730        0.36000       -1.30310
| 37> O          2.11970        1.75080        1.75630
| 38> H         -2.96700       -1.73660       -2.03120
| 39> H         -5.11380       -2.72020       -2.75560
| 40> H         -7.11080       -2.51020       -1.32670
| 41> H         -6.97290       -1.31740        0.82620
| 42> H         -4.82870       -0.32640        1.55440
| 43> H          0.85920       -0.24490       -0.57350
| 44> H          4.47670        1.33690        1.75720
| 45> H          6.67530        0.98420        0.67950
| 46> H          6.78320        0.23290       -1.66970
| 47> H          4.70400       -0.14690       -2.93650
| 48> H          2.52610        0.21060       -1.87670
| 49> *
| 50>
| 51>
| 52> $new_job
| 53> ! x3lyp aug-cc-PVTZ RIJCOSX SP
| 54> %maxcore 4000
| 55> %basis
| 56>  AuxJ "aug-cc-PVTZ/JK"
| 57>  AuxC "aug-cc-PVTZ/C"
| 58>  newGTO H "cc-PVTZ" end
| 59>  newAuxJGTO H "cc-PVTZ/JK" end
| 60>  newAuxCGTO H "cc-PVTZ/C" end
| 61> end
| 62> %cpcm
| 63>  SMD true
| 64>  SMDsolvent "dichloromethane"
| 65> end
| 66> %pal nprocs 4 end
| 67> %tddft
| 68>  nroots 10
| 69>  maxdim 7
| 70> end
| 71> * xyzfile 0 1
| 72>
| 73>                          ****END OF INPUT****
 Total Charge           Charge          ....    0
 Multiplicity           Mult            ....    1
 Number of Electrons    NEL             ....  152
FINAL SINGLE POINT ENERGY     -1029.158898297709
FINAL SINGLE POINT ENERGY     -1029.160417263063
FINAL SINGLE POINT ENERGY     -1029.160872700768
FINAL SINGLE POINT ENERGY     -1029.161007304720
FINAL SINGLE POINT ENERGY     -1029.161055417548
FINAL SINGLE POINT ENERGY     -1029.161073504615
FINAL SINGLE POINT ENERGY     -1029.161084645316
FINAL SINGLE POINT ENERGY     -1029.161076482518
FINAL SINGLE POINT ENERGY     -1029.161057045480
FINAL SINGLE POINT ENERGY     -1029.161033360159
FINAL SINGLE POINT ENERGY     -1029.160988271130
FINAL SINGLE POINT ENERGY     -1029.161037668334
FINAL SINGLE POINT ENERGY     -1029.161067719387
FINAL SINGLE POINT ENERGY     -1029.161084413225
FINAL SINGLE POINT ENERGY     -1029.161114453383
FINAL SINGLE POINT ENERGY     -1029.161109135815
FINAL SINGLE POINT ENERGY     -1029.161117539113
FINAL SINGLE POINT ENERGY     -1029.161119359082
                    ***********************HURRAY********************
FINAL SINGLE POINT ENERGY     -1029.161116476729

CARTESIAN COORDINATES (ANGSTROEM)
---------------------------------
  F      0.770525    3.162935    2.696432
  B      0.983981    1.793736    2.785883
  F      1.213488    1.408967    4.092633
  O     -0.226730    1.084818    2.284286
  C     -0.251091    0.530568    1.101995
  C     -1.492559    0.017274    0.669713
  C     -2.543723   -0.427516    0.272317
  C     -3.776131   -0.941883   -0.198106
  C     -3.846882   -1.565556   -1.454698
  C     -5.056017   -2.062493   -1.912433
  C     -6.201517   -1.946041   -1.129513
  C     -6.138286   -1.330632    0.117861
  C     -4.935202   -0.829377    0.586793
  C      0.880808    0.426112    0.304805
  C      2.106561    0.870306    0.796849
  C      3.371285    0.729173    0.068859
  C      4.506104    1.419533    0.517365
  C      5.707630    1.307402   -0.163326
  C      5.797565    0.500071   -1.293290
  C      4.679058   -0.196003   -1.741974
  C      3.473152   -0.083009   -1.069829
  O      2.177518    1.440416    1.964222
  H     -2.953547   -1.652980   -2.057103
  H     -5.106992   -2.541520   -2.880692
  H     -7.143765   -2.334714   -1.491719
  H     -7.029175   -1.240469    0.724202
  H     -4.878573   -0.348834    1.553474
  H      0.794032   -0.027723   -0.665719
  H      4.436289    2.049242    1.391663
  H      6.575358    1.850137    0.185899
  H      6.737401    0.411024   -1.821773
  H      4.748513   -0.830857   -2.614683
  H      2.620925   -0.642006   -1.426493

 Multiplicity           Mult            ....    1
 Number of Electrons    NEL             ....  152
 Basis Dimension        Dim             .... 1166

ORBITAL ENERGIES
----------------

  NO   OCC          E(Eh)            E(eV)
   0   2.0000     -24.684069      -671.6877
   1   2.0000     -24.683052      -671.6600
   2   2.0000     -19.204909      -522.5921
   3   2.0000     -19.204448      -522.5796
   4   2.0000     -10.327128      -281.0154
   5   2.0000     -10.316594      -280.7288
   6   2.0000     -10.238074      -278.5921
   7   2.0000     -10.235565      -278.5239
   8   2.0000     -10.226990      -278.2906
   9   2.0000     -10.218481      -278.0590
  10   2.0000     -10.216325      -278.0003
  11   2.0000     -10.216143      -277.9954
  12   2.0000     -10.215804      -277.9862
  13   2.0000     -10.213502      -277.9235
  14   2.0000     -10.213356      -277.9195
  15   2.0000     -10.212812      -277.9047
  16   2.0000     -10.211946      -277.8812
  17   2.0000     -10.208319      -277.7825
  18   2.0000     -10.208103      -277.7766
  19   2.0000     -10.207833      -277.7693
  20   2.0000     -10.207341      -277.7559
  21   2.0000      -6.871194      -186.9747
  22   2.0000      -1.199458       -32.6389
  23   2.0000      -1.164767       -31.6949
  24   2.0000      -1.110358       -30.2144
  25   2.0000      -1.081995       -29.4426
  26   2.0000      -0.885360       -24.0919
  27   2.0000      -0.882914       -24.0253
  28   2.0000      -0.836371       -22.7588
  29   2.0000      -0.810501       -22.0548
  30   2.0000      -0.785731       -21.3808
  31   2.0000      -0.767741       -20.8913
  32   2.0000      -0.767449       -20.8833
  33   2.0000      -0.757085       -20.6013
  34   2.0000      -0.704760       -19.1775
  35   2.0000      -0.672900       -18.3106
  36   2.0000      -0.638652       -17.3786
  37   2.0000      -0.623747       -16.9730
  38   2.0000      -0.623089       -16.9551
  39   2.0000      -0.611635       -16.6434
  40   2.0000      -0.580969       -15.8090
  41   2.0000      -0.564018       -15.3477
  42   2.0000      -0.552571       -15.0362
  43   2.0000      -0.528792       -14.3891
  44   2.0000      -0.520178       -14.1548
  45   2.0000      -0.512398       -13.9431
  46   2.0000      -0.499202       -13.5840
  47   2.0000      -0.490669       -13.3518
  48   2.0000      -0.481942       -13.1143
  49   2.0000      -0.475105       -12.9283
  50   2.0000      -0.464166       -12.6306
  51   2.0000      -0.451411       -12.2835
  52   2.0000      -0.446946       -12.1620
  53   2.0000      -0.444274       -12.0893
  54   2.0000      -0.441654       -12.0180
  55   2.0000      -0.436636       -11.8815
  56   2.0000      -0.436378       -11.8744
  57   2.0000      -0.417949       -11.3730
  58   2.0000      -0.409540       -11.1441
  59   2.0000      -0.403118       -10.9694
  60   2.0000      -0.395899       -10.7729
  61   2.0000      -0.392197       -10.6722
  62   2.0000      -0.384809       -10.4712
  63   2.0000      -0.376995       -10.2585
  64   2.0000      -0.371181       -10.1004
  65   2.0000      -0.370202       -10.0737
  66   2.0000      -0.362489        -9.8638
  67   2.0000      -0.356829        -9.7098
  68   2.0000      -0.338453        -9.2098
  69   2.0000      -0.335755        -9.1364
  70   2.0000      -0.306161        -8.3311
  71   2.0000      -0.294927        -8.0254
  72   2.0000      -0.272878        -7.4254
  73   2.0000      -0.272644        -7.4190
  74   2.0000      -0.271826        -7.3968
  75   2.0000      -0.245866        -6.6903
  76   0.0000      -0.111561        -3.0357
  77   0.0000      -0.050696        -1.3795
  78   0.0000      -0.021637        -0.5888
  79   0.0000      -0.021249        -0.5782
  80   0.0000      -0.008406        -0.2287

MULLIKEN ATOMIC CHARGES
-----------------------
   0 F :   -0.724912
   1 B :    1.672061
   2 F :   -0.732406
   3 O :   -1.018998
   4 C :    0.839746
   5 C :    0.954490
   6 C :   -1.010775
   7 C :    2.077275
   8 C :   -0.587427
   9 C :   -0.398615
  10 C :   -0.184712
  11 C :   -0.427247
  12 C :   -0.558800
  13 C :   -0.950109
  14 C :    0.684989
  15 C :    1.627452
  16 C :   -0.425059
  17 C :   -0.502472
  18 C :   -0.143961
  19 C :   -0.459020
  20 C :   -0.444864
  21 O :   -0.983102
  22 H :    0.127621
  23 H :    0.208922
  24 H :    0.204403
  25 H :    0.208364
  26 H :    0.130105
  27 H :   -0.012647
  28 H :    0.127155
  29 H :    0.212218
  30 H :    0.206886
  31 H :    0.210738
  32 H :    0.072699
Sum of atomic charges:   -0.0000000

LOEWDIN ATOMIC CHARGES
----------------------
   0 F :    0.432467
   1 B :   -1.872920
   2 F :    0.433685
   3 O :    0.625509
   4 C :   -0.535376
   5 C :    0.081175
   6 C :    0.060482
   7 C :   -0.380145
   8 C :   -0.041384
   9 C :   -0.109802
  10 C :   -0.122944
  11 C :   -0.109064
  12 C :   -0.040069
  13 C :    0.088970
  14 C :   -0.481417
  15 C :   -0.303661
  16 C :   -0.032181
  17 C :   -0.100225
  18 C :   -0.116753
  19 C :   -0.103172
  20 C :   -0.040338
  21 O :    0.631167
  22 H :    0.193086
  23 H :    0.172923
  24 H :    0.172776
  25 H :    0.173105
  26 H :    0.193564
  27 H :    0.213152
  28 H :    0.200103
  29 H :    0.173260
  30 H :    0.173487
  31 H :    0.173105
  32 H :    0.197437

  Mayer bond orders larger than 0.100000
B(  0-F ,  1-B ) :   0.2620 B(  0-F ,  3-O ) :   0.1132 B(  0-F , 14-C ) :  -0.1215
B(  0-F , 21-O ) :   0.1837 B(  1-B ,  2-F ) :   0.2084 B(  1-B ,  3-O ) :   0.4881
B(  1-B , 21-O ) :   0.4822 B(  2-F ,  3-O ) :   0.1910 B(  2-F ,  4-C ) :  -0.1174
B(  2-F ,  5-C ) :   0.1205 B(  2-F , 21-O ) :   0.1333 B(  3-O ,  4-C ) :   0.6098
B(  3-O , 13-C ) :   0.2678 B(  3-O , 21-O ) :  -0.1895 B(  4-C ,  5-C ) :  -0.2947
B(  4-C ,  6-C ) :   0.2674 B(  4-C ,  8-C ) :   0.1525 B(  4-C , 12-C ) :   0.1614
B(  4-C , 13-C ) :   0.5720 B(  4-C , 14-C ) :  -0.2533 B(  4-C , 15-C ) :   0.1655
B(  4-C , 27-H ) :  -0.1779 B(  5-C ,  6-C ) :   2.9034 B(  5-C ,  7-C ) :  -0.3559
B(  5-C ,  8-C ) :   0.1561 B(  5-C ,  9-C ) :  -0.2665 B(  5-C , 10-C ) :   0.2022
B(  5-C , 11-C ) :  -0.2197 B(  5-C , 13-C ) :   0.3899 B(  6-C ,  8-C ) :   0.1631
B(  6-C ,  9-C ) :   0.2049 B(  6-C , 11-C ) :   0.1939 B(  6-C , 12-C ) :   0.2937
B(  6-C , 13-C ) :  -0.5091 B(  6-C , 16-C ) :  -0.1088 B(  6-C , 20-C ) :   0.1258
B(  7-C ,  8-C ) :   0.3547 B(  7-C ,  9-C ) :  -0.1567 B(  7-C , 10-C ) :  -0.2091
B(  7-C , 11-C ) :  -0.1234 B(  7-C , 12-C ) :   0.3165 B(  7-C , 26-H ) :  -0.1103
B(  8-C ,  9-C ) :   1.3399 B(  8-C , 22-H ) :   1.0792 B(  9-C , 10-C ) :   1.2167
B(  9-C , 23-H ) :   0.9479 B( 10-C , 11-C ) :   1.2077 B( 10-C , 24-H ) :   0.9407
B( 11-C , 12-C ) :   1.3425 B( 11-C , 25-H ) :   0.9473 B( 12-C , 26-H ) :   1.0831
B( 13-C , 14-C ) :   0.9683 B( 13-C , 16-C ) :   0.1882 B( 13-C , 21-O ) :   0.1300
B( 13-C , 27-H ) :   1.4770 B( 14-C , 18-C ) :   0.1099 B( 14-C , 19-C ) :   0.1008
B( 14-C , 21-O ) :   0.6121 B( 14-C , 27-H ) :  -0.1822 B( 15-C , 16-C ) :   0.6813
B( 15-C , 17-C ) :  -0.1599 B( 15-C , 19-C ) :  -0.2108 B( 15-C , 20-C ) :   0.7622
B( 16-C , 17-C ) :   1.2580 B( 16-C , 20-C ) :  -0.1199 B( 16-C , 28-H ) :   1.0925
B( 17-C , 18-C ) :   1.1761 B( 17-C , 29-H ) :   0.9400 B( 18-C , 19-C ) :   1.2144
B( 18-C , 30-H ) :   0.9399 B( 19-C , 20-C ) :   1.2910 B( 19-C , 31-H ) :   0.9394
B( 20-C , 32-H ) :   1.1245

-----------------------------------------------------------------------------
         ABSORPTION SPECTRUM VIA TRANSITION ELECTRIC DIPOLE MOMENTS
-----------------------------------------------------------------------------
State   Energy    Wavelength  fosc         T2        TX        TY        TZ
        (cm-1)      (nm)                 (au**2)    (au)      (au)      (au)
-----------------------------------------------------------------------------
   1   26009.0    384.5   1.609443475  20.37170   4.40480   0.98095   0.08500
   2   30303.7    330.0   0.025984543   0.28229   0.34524   0.29571   0.27505
   3   31228.2    320.2   0.013717213   0.14461   0.18238  -0.11039  -0.31490
   4   32719.7    305.6   0.169405539   1.70449   0.46843  -0.51187  -1.10592
   5   33400.4    299.4   0.011200999   0.11040   0.16255  -0.10783  -0.26899
   6   37429.8    267.2   0.020261602   0.17821   0.32976   0.18431   0.18840
   7   39460.9    253.4   0.005329561   0.04446   0.10150   0.13765   0.12334
   8   39927.3    250.5   0.134963054   1.11281  -0.42729  -0.56483  -0.78179
   9   41779.1    239.4   0.000117463   0.00093  -0.00796   0.01214   0.02674
  10   42388.3    235.9   0.004207169   0.03268  -0.15783  -0.08097  -0.03476

FINAL SINGLE POINT ENERGY     -1029.042610707081

DIPOLE MOMENT
-------------
                                X             Y             Z
Electronic contribution:      4.00903      10.62969      17.07688
Nuclear contribution   :     -4.55860     -13.10439     -21.14869
                        -----------------------------------------
Total Dipole Moment    :     -0.54958      -2.47470      -4.07181
                        -----------------------------------------
Magnitude (a.u.)       :      4.79644
Magnitude (Debye)      :     12.19157

Rotational constants in cm-1:     0.015687     0.003849     0.003151
Rotational constants in MHz :   470.283021   115.400375    94.454862

                             ****ORCA TERMINATED NORMALLY****
TOTAL RUN TIME: 0 days 9 hours 34 minutes 10 seconds 663 msec
