                         Program Version 5.0.2 -  RELEASE  -
|  1> ! b3lyp aug-cc-PVTZ RIJCOSX Opt
|  2> %maxcore 4000
|  3> %basis
|  4>  AuxJ "aug-cc-PVTZ/JK"
|  5>  AuxC "aug-cc-PVTZ/C"
|  6>  newGTO H "cc-PVTZ" end
|  7>  newAuxJGTO H "cc-PVTZ/JK" end
|  8>  newAuxCGTO H "cc-PVTZ/C" end
|  9> end
| 10> %cpcm
| 11>  SMD true
| 12>  SMDsolvent "n,n-dimethylformamide"
| 13> end
| 14> %pal nprocs 4 end
| 15> * xyz 0 1
| 16> C         -2.82150       -2.31600       -0.52420
| 17> N         -2.34630       -0.95930       -0.29970
| 18> C         -3.31610        0.05570       -0.21380
| 19> C         -4.67480       -0.26280       -0.30710
| 20> C         -5.63820        0.72560       -0.22610
| 21> C         -5.28100        2.05040       -0.05140
| 22> C         -3.93830        2.37360        0.04160
| 23> C         -2.96630        1.39530       -0.03870
| 24> C         -1.01900       -0.81700       -0.19380
| 25> C          0.02650       -1.83130       -0.27030
| 26> O          0.04390       -3.04580       -0.44680
| 27> C          1.04280       -0.80810       -0.05160
| 28> N          2.37350       -0.93840        0.02220
| 29> C          2.88680       -2.29040       -0.13710
| 30> C          3.31410        0.08570        0.23360
| 31> C          2.92730        1.41300        0.42350
| 32> C          3.87120        2.40040        0.62980
| 33> C          5.22180        2.09810        0.65450
| 34> C          5.61550        0.78540        0.46800
| 35> C          4.68050       -0.21160        0.26010
| 36> C         -0.00270        0.21620        0.02390
| 37> O         -0.01980        1.42500        0.19510
| 38> H         -3.45850       -2.63510        0.30220
| 39> H         -3.38190       -2.36850       -1.45870
| 40> H         -1.97410       -2.99420       -0.58860
| 41> H         -5.00960       -1.27710       -0.44140
| 42> H         -6.67990        0.44990       -0.30110
| 43> H         -6.03770        2.81740        0.01150
| 44> H         -3.63630        3.40100        0.17840
| 45> H         -1.93440        1.68880        0.03970
| 46> H          2.05930       -2.98100       -0.28080
| 47> H          3.54010       -2.34620       -1.00910
| 48> H          3.44030       -2.59040        0.75380
| 49> H          1.88820        1.69060        0.41040
| 50> H          3.54070        3.41810        0.77290
| 51> H          5.95640        2.87210        0.81620
| 52> H          6.66400        0.52620        0.48300
| 53> H          5.04340       -1.21540        0.11950
| 54> *
| 55>
| 56>
| 57> $new_job
| 58> ! b3lyp aug-cc-PVTZ RIJCOSX SP
| 59> %maxcore 4000
| 60> %basis
| 61>  AuxJ "aug-cc-PVTZ/JK"
| 62>  AuxC "aug-cc-PVTZ/C"
| 63>  newGTO H "cc-PVTZ" end
| 64>  newAuxJGTO H "cc-PVTZ/JK" end
| 65>  newAuxCGTO H "cc-PVTZ/C" end
| 66> end
| 67> %cpcm
| 68>  SMD true
| 69>  SMDsolvent "n,n-dimethylformamide"
| 70> end
| 71> %pal nprocs 4 end
| 72> %tddft
| 73>  nroots 10
| 74>  maxdim 7
| 75> end
| 76> * xyzfile 0 1
| 77>
| 78>                          ****END OF INPUT****
 Total Charge           Charge          ....    0
 Multiplicity           Mult            ....    1
 Number of Electrons    NEL             ....  154
FINAL SINGLE POINT ENERGY      -955.251778099993
FINAL SINGLE POINT ENERGY      -955.254048398455
FINAL SINGLE POINT ENERGY      -955.254309306615
FINAL SINGLE POINT ENERGY      -955.254359162397
FINAL SINGLE POINT ENERGY      -955.254444836395
FINAL SINGLE POINT ENERGY      -955.254767034068
FINAL SINGLE POINT ENERGY      -955.254885059677
FINAL SINGLE POINT ENERGY      -955.254971422108
FINAL SINGLE POINT ENERGY      -955.254996912991
FINAL SINGLE POINT ENERGY      -955.255182941008
FINAL SINGLE POINT ENERGY      -955.260616220097
FINAL SINGLE POINT ENERGY      -955.261792737757
FINAL SINGLE POINT ENERGY      -955.262533794761
FINAL SINGLE POINT ENERGY      -955.262862448909
FINAL SINGLE POINT ENERGY      -955.262859638360
FINAL SINGLE POINT ENERGY      -955.262931316670
FINAL SINGLE POINT ENERGY      -955.262940897627
FINAL SINGLE POINT ENERGY      -955.262943960487
                    ***********************HURRAY********************
FINAL SINGLE POINT ENERGY      -955.262943491839

CARTESIAN COORDINATES (ANGSTROEM)
---------------------------------
  C     -3.020767   -2.414843   -0.387497
  N     -2.333939   -1.114900   -0.310687
  C     -3.140772    0.066722   -0.321279
  C     -4.282384    0.137022    0.477261
  C     -5.084136    1.271733    0.436876
  C     -4.756968    2.336476   -0.396791
  C     -3.622283    2.257592   -1.198415
  C     -2.818212    1.125141   -1.169620
  C     -1.008732   -1.072286   -0.231730
  C      0.027048   -2.098734   -0.338227
  O      0.044588   -3.314375   -0.546025
  C      1.032297   -1.065539   -0.092960
  N      2.359466   -1.093668   -0.037047
  C      3.078885   -2.326137   -0.399496
  C      3.137863    0.043607    0.346141
  C      2.795688    0.777055    1.481860
  C      3.575803    1.860871    1.865119
  C      4.703858    2.213151    1.130223
  C      5.049997    1.470095    0.006131
  C      4.273709    0.386657   -0.387822
  C     -0.003866   -0.029339    0.019085
  O     -0.022061    1.179062    0.229825
  H     -3.514017   -2.643942    0.557207
  H     -3.764862   -2.383921   -1.181872
  H     -2.287830   -3.187303   -0.598040
  H     -4.539923   -0.680971    1.135371
  H     -5.964859    1.322761    1.063762
  H     -5.384517    3.217482   -0.426986
  H     -3.365696    3.074793   -1.860051
  H     -1.950601    1.056421   -1.809494
  H      2.372230   -3.149554   -0.427108
  H      3.542121   -2.225260   -1.381237
  H      3.850316   -2.524323    0.342549
  H      1.932463    0.494352    2.066364
  H      3.305326    2.423824    2.749102
  H      5.311715    3.054796    1.435281
  H      5.925800    1.733870   -0.572417
  H      4.547153   -0.178487   -1.267758

 Multiplicity           Mult            ....    1
 Number of Electrons    NEL             ....  154
 Basis Dimension        Dim             .... 1236

ORBITAL ENERGIES
----------------

  NO   OCC          E(Eh)            E(eV)
   0   2.0000     -19.093306      -519.5553
   1   2.0000     -19.091407      -519.5036
   2   2.0000     -14.379149      -391.2765
   3   2.0000     -14.379052      -391.2739
   4   2.0000     -10.252325      -278.9799
   5   2.0000     -10.251076      -278.9460
   6   2.0000     -10.234635      -278.4986
   7   2.0000     -10.234608      -278.4979
   8   2.0000     -10.221984      -278.1543
   9   2.0000     -10.221909      -278.1523
  10   2.0000     -10.197783      -277.4958
  11   2.0000     -10.197688      -277.4932
  12   2.0000     -10.178595      -276.9737
  13   2.0000     -10.178473      -276.9703
  14   2.0000     -10.178189      -276.9626
  15   2.0000     -10.178056      -276.9590
  16   2.0000     -10.177075      -276.9323
  17   2.0000     -10.176965      -276.9293
  18   2.0000     -10.176518      -276.9171
  19   2.0000     -10.176420      -276.9145
  20   2.0000     -10.174320      -276.8573
  21   2.0000     -10.174182      -276.8536
  22   2.0000      -1.027161       -27.9505
  23   2.0000      -1.012636       -27.5552
  24   2.0000      -0.981233       -26.7007
  25   2.0000      -0.977955       -26.6115
  26   2.0000      -0.869138       -23.6504
  27   2.0000      -0.857419       -23.3316
  28   2.0000      -0.846433       -23.0326
  29   2.0000      -0.756682       -20.5904
  30   2.0000      -0.754023       -20.5180
  31   2.0000      -0.753806       -20.5121
  32   2.0000      -0.750923       -20.4337
  33   2.0000      -0.722733       -19.6666
  34   2.0000      -0.702656       -19.1202
  35   2.0000      -0.649719       -17.6797
  36   2.0000      -0.630574       -17.1588
  37   2.0000      -0.610367       -16.6089
  38   2.0000      -0.609514       -16.5857
  39   2.0000      -0.574548       -15.6342
  40   2.0000      -0.570086       -15.5128
  41   2.0000      -0.552043       -15.0218
  42   2.0000      -0.530682       -14.4406
  43   2.0000      -0.504944       -13.7402
  44   2.0000      -0.494089       -13.4449
  45   2.0000      -0.481254       -13.0956
  46   2.0000      -0.476232       -12.9589
  47   2.0000      -0.468143       -12.7388
  48   2.0000      -0.466052       -12.6819
  49   2.0000      -0.453227       -12.3329
  50   2.0000      -0.444300       -12.0900
  51   2.0000      -0.442395       -12.0382
  52   2.0000      -0.438165       -11.9231
  53   2.0000      -0.434998       -11.8369
  54   2.0000      -0.427293       -11.6272
  55   2.0000      -0.421977       -11.4826
  56   2.0000      -0.421846       -11.4790
  57   2.0000      -0.414943       -11.2912
  58   2.0000      -0.400673       -10.9029
  59   2.0000      -0.399823       -10.8797
  60   2.0000      -0.390768       -10.6333
  61   2.0000      -0.376667       -10.2496
  62   2.0000      -0.376081       -10.2337
  63   2.0000      -0.363652        -9.8955
  64   2.0000      -0.360610        -9.8127
  65   2.0000      -0.358918        -9.7666
  66   2.0000      -0.351620        -9.5681
  67   2.0000      -0.349779        -9.5180
  68   2.0000      -0.324838        -8.8393
  69   2.0000      -0.313679        -8.5356
  70   2.0000      -0.275509        -7.4970
  71   2.0000      -0.261421        -7.1136
  72   2.0000      -0.260918        -7.0999
  73   2.0000      -0.254910        -6.9364
  74   2.0000      -0.254624        -6.9287
  75   2.0000      -0.233988        -6.3671
  76   2.0000      -0.192066        -5.2264
  77   0.0000      -0.055500        -1.5102
  78   0.0000      -0.017707        -0.4818
  79   0.0000      -0.016340        -0.4446
  80   0.0000      -0.013111        -0.3568
  81   0.0000      -0.008611        -0.2343

MULLIKEN ATOMIC CHARGES
-----------------------
   0 C :   -0.831560
   1 N :    0.255321
   2 C :    1.211987
   3 C :   -0.580854
   4 C :   -0.227910
   5 C :   -0.313418
   6 C :   -0.492578
   7 C :   -0.446215
   8 C :    0.258168
   9 C :    0.913892
  10 O :   -1.148352
  11 C :    0.224110
  12 N :    0.254841
  13 C :   -0.832201
  14 C :    1.237865
  15 C :   -0.460406
  16 C :   -0.491553
  17 C :   -0.295884
  18 C :   -0.234292
  19 C :   -0.584544
  20 C :    0.719693
  21 O :   -1.047797
  22 H :    0.178504
  23 H :    0.161157
  24 H :    0.234559
  25 H :    0.133072
  26 H :    0.208967
  27 H :    0.206068
  28 H :    0.197371
  29 H :    0.138775
  30 H :    0.231677
  31 H :    0.178905
  32 H :    0.163397
  33 H :    0.135673
  34 H :    0.197945
  35 H :    0.207780
  36 H :    0.209959
  37 H :    0.127879
Sum of atomic charges:    0.0000000

LOEWDIN ATOMIC CHARGES
----------------------
   0 C :    0.043741
   1 N :    0.044234
   2 C :   -0.443172
   3 C :   -0.049364
   4 C :   -0.128316
   5 C :   -0.142759
   6 C :   -0.122257
   7 C :   -0.049253
   8 C :   -0.244735
   9 C :   -0.628476
  10 O :    0.353905
  11 C :   -0.244042
  12 N :    0.044639
  13 C :    0.042596
  14 C :   -0.442178
  15 C :   -0.049884
  16 C :   -0.122707
  17 C :   -0.143130
  18 C :   -0.128765
  19 C :   -0.050793
  20 C :   -0.596427
  21 O :    0.403417
  22 H :    0.132974
  23 H :    0.136554
  24 H :    0.146854
  25 H :    0.194178
  26 H :    0.171220
  27 H :    0.168693
  28 H :    0.171762
  29 H :    0.204253
  30 H :    0.146824
  31 H :    0.133086
  32 H :    0.136946
  33 H :    0.204382
  34 H :    0.171763
  35 H :    0.168645
  36 H :    0.171275
  37 H :    0.194316

  Mayer bond orders larger than 0.100000
B(  0-C ,  1-N ) :   0.9654 B(  0-C ,  8-C ) :  -0.2135 B(  0-C , 22-H ) :   0.9892
B(  0-C , 23-H ) :   1.0067 B(  0-C , 24-H ) :   0.9429 B(  1-N ,  2-C ) :   0.4634
B(  1-N ,  8-C ) :   0.9122 B(  1-N , 11-C ) :   0.1563 B(  1-N , 20-C ) :  -0.2255
B(  2-C ,  3-C ) :   0.6849 B(  2-C ,  4-C ) :  -0.1118 B(  2-C ,  5-C ) :  -0.1514
B(  2-C ,  6-C ) :  -0.1663 B(  2-C ,  7-C ) :   0.7408 B(  2-C ,  8-C ) :  -0.2353
B(  2-C ,  9-C ) :   0.1009 B(  2-C , 20-C ) :   0.1601 B(  3-C ,  4-C ) :   1.1963
B(  3-C ,  6-C ) :   0.1153 B(  3-C ,  7-C ) :   0.1319 B(  3-C , 25-H ) :   1.0550
B(  4-C ,  5-C ) :   1.2032 B(  4-C , 26-H ) :   0.9598 B(  5-C ,  6-C ) :   1.2938
B(  5-C , 27-H ) :   0.9446 B(  6-C ,  7-C ) :   1.1213 B(  6-C , 28-H ) :   0.9969
B(  7-C , 29-H ) :   1.0684 B(  8-C ,  9-C ) :   0.7056 B(  8-C , 10-O ) :   0.4173
B(  8-C , 11-C ) :   0.2836 B(  8-C , 12-N ) :   0.1737 B(  8-C , 20-C ) :   0.7289
B(  8-C , 21-O ) :   0.1427 B(  9-C , 11-C ) :   0.6927 B(  9-C , 14-C ) :   0.1020
B(  9-C , 20-C ) :  -0.3173 B( 10-O , 11-C ) :   0.4260 B( 10-O , 20-C ) :   0.1122
B( 11-C , 12-N ) :   0.9334 B( 11-C , 13-C ) :  -0.1732 B( 11-C , 14-C ) :  -0.2355
B( 11-C , 20-C ) :   0.7238 B( 11-C , 21-O ) :   0.1565 B( 12-N , 13-C ) :   0.9386
B( 12-N , 14-C ) :   0.4691 B( 12-N , 20-C ) :  -0.2380 B( 13-C , 30-H ) :   0.9458
B( 13-C , 31-H ) :   0.9903 B( 13-C , 32-H ) :   1.0030 B( 14-C , 15-C ) :   0.7201
B( 14-C , 16-C ) :  -0.1660 B( 14-C , 17-C ) :  -0.1477 B( 14-C , 19-C ) :   0.7156
B( 14-C , 20-C ) :   0.1591 B( 15-C , 16-C ) :   1.1285 B( 15-C , 19-C ) :   0.1329
B( 15-C , 33-H ) :   1.0640 B( 16-C , 17-C ) :   1.2891 B( 16-C , 19-C ) :   0.1187
B( 16-C , 34-H ) :   0.9936 B( 17-C , 18-C ) :   1.1886 B( 17-C , 35-H ) :   0.9407
B( 18-C , 19-C ) :   1.1962 B( 18-C , 36-H ) :   0.9599 B( 19-C , 37-H ) :   1.0651
B( 20-C , 21-O ) :   0.5462

-----------------------------------------------------------------------------
         ABSORPTION SPECTRUM VIA TRANSITION ELECTRIC DIPOLE MOMENTS
-----------------------------------------------------------------------------
State   Energy    Wavelength  fosc         T2        TX        TY        TZ
        (cm-1)      (nm)                 (au**2)    (au)      (au)      (au)
-----------------------------------------------------------------------------
   1   27426.0    364.6   0.765261933   9.18592   3.01533  -0.00125   0.30609
   2   31242.4    320.1   0.206440866   2.17534  -1.47083  -0.00396  -0.10946
   3   33225.8    301.0   0.012682398   0.12566   0.04207  -0.05009   0.34840
   4   33596.1    297.7   0.000365053   0.00358  -0.00974  -0.05885   0.00438
   5   34677.9    288.4   0.067627986   0.64202  -0.02331  -0.79022  -0.13050
   6   36160.7    276.5   0.014113424   0.12849  -0.32089   0.02677  -0.15749
   7   36428.1    274.5   0.045232760   0.40878  -0.00368  -0.63039  -0.10668
   8   37322.1    267.9   0.070529692   0.62213   0.78110  -0.01394   0.10873
   9   38572.4    259.3   0.080809790   0.68970  -0.81625  -0.03870   0.14811
  10   39298.0    254.5   0.000096062   0.00080   0.01773  -0.02101  -0.00700

FINAL SINGLE POINT ENERGY      -955.137981220186

DIPOLE MOMENT
-------------
                                X             Y             Z
Electronic contribution:     -0.02679       0.06467       0.10845
Nuclear contribution   :      0.01558      -0.27425      -0.16949
                        -----------------------------------------
Total Dipole Moment    :     -0.01121      -0.20958      -0.06104
                        -----------------------------------------
Magnitude (a.u.)       :      0.21858
Magnitude (Debye)      :      0.55558

Rotational constants in cm-1:     0.017309     0.005349     0.004347
Rotational constants in MHz :   518.909721   160.350204   130.317953

                             ****ORCA TERMINATED NORMALLY****
TOTAL RUN TIME: 1 days 1 hours 23 minutes 30 seconds 959 msec
