                         Program Version 5.0.2 -  RELEASE  -
|  1> ! m062x defgrid3 aug-cc-PVTZ RIJCOSX Opt
|  2> %maxcore 4000
|  3> %basis
|  4>  AuxJ "aug-cc-PVTZ/JK"
|  5>  AuxC "aug-cc-PVTZ/C"
|  6>  newGTO H "cc-PVTZ" end
|  7>  newAuxJGTO H "cc-PVTZ/JK" end
|  8>  newAuxCGTO H "cc-PVTZ/C" end
|  9> end
| 10> %cpcm
| 11>  SMD true
| 12>  SMDsolvent "n,n-dimethylformamide"
| 13> end
| 14> %pal nprocs 4 end
| 15> * xyz 0 1
| 16> C         -2.82150       -2.31600       -0.52420
| 17> N         -2.34630       -0.95930       -0.29970
| 18> C         -3.31610        0.05570       -0.21380
| 19> C         -4.67480       -0.26280       -0.30710
| 20> C         -5.63820        0.72560       -0.22610
| 21> C         -5.28100        2.05040       -0.05140
| 22> C         -3.93830        2.37360        0.04160
| 23> C         -2.96630        1.39530       -0.03870
| 24> C         -1.01900       -0.81700       -0.19380
| 25> C          0.02650       -1.83130       -0.27030
| 26> O          0.04390       -3.04580       -0.44680
| 27> C          1.04280       -0.80810       -0.05160
| 28> N          2.37350       -0.93840        0.02220
| 29> C          2.88680       -2.29040       -0.13710
| 30> C          3.31410        0.08570        0.23360
| 31> C          2.92730        1.41300        0.42350
| 32> C          3.87120        2.40040        0.62980
| 33> C          5.22180        2.09810        0.65450
| 34> C          5.61550        0.78540        0.46800
| 35> C          4.68050       -0.21160        0.26010
| 36> C         -0.00270        0.21620        0.02390
| 37> O         -0.01980        1.42500        0.19510
| 38> H         -3.45850       -2.63510        0.30220
| 39> H         -3.38190       -2.36850       -1.45870
| 40> H         -1.97410       -2.99420       -0.58860
| 41> H         -5.00960       -1.27710       -0.44140
| 42> H         -6.67990        0.44990       -0.30110
| 43> H         -6.03770        2.81740        0.01150
| 44> H         -3.63630        3.40100        0.17840
| 45> H         -1.93440        1.68880        0.03970
| 46> H          2.05930       -2.98100       -0.28080
| 47> H          3.54010       -2.34620       -1.00910
| 48> H          3.44030       -2.59040        0.75380
| 49> H          1.88820        1.69060        0.41040
| 50> H          3.54070        3.41810        0.77290
| 51> H          5.95640        2.87210        0.81620
| 52> H          6.66400        0.52620        0.48300
| 53> H          5.04340       -1.21540        0.11950
| 54> *
| 55>
| 56>
| 57> $new_job
| 58> ! m062x defgrid3 aug-cc-PVTZ RIJCOSX SP
| 59> %maxcore 4000
| 60> %basis
| 61>  AuxJ "aug-cc-PVTZ/JK"
| 62>  AuxC "aug-cc-PVTZ/C"
| 63>  newGTO H "cc-PVTZ" end
| 64>  newAuxJGTO H "cc-PVTZ/JK" end
| 65>  newAuxCGTO H "cc-PVTZ/C" end
| 66> end
| 67> %cpcm
| 68>  SMD true
| 69>  SMDsolvent "n,n-dimethylformamide"
| 70> end
| 71> %pal nprocs 4 end
| 72> %tddft
| 73>  nroots 10
| 74>  maxdim 7
| 75> end
| 76> * xyzfile 0 1
| 77>
| 78>                          ****END OF INPUT****
 Total Charge           Charge          ....    0
 Multiplicity           Mult            ....    1
 Number of Electrons    NEL             ....  154
FINAL SINGLE POINT ENERGY      -955.435911675093
FINAL SINGLE POINT ENERGY      -955.437338324945
FINAL SINGLE POINT ENERGY      -955.437618130755
FINAL SINGLE POINT ENERGY      -955.437800097735
FINAL SINGLE POINT ENERGY      -955.438365407587
FINAL SINGLE POINT ENERGY      -955.439192354883
FINAL SINGLE POINT ENERGY      -955.440578784871
FINAL SINGLE POINT ENERGY      -955.441482692181
FINAL SINGLE POINT ENERGY      -955.442937133675
FINAL SINGLE POINT ENERGY      -955.443796444166
FINAL SINGLE POINT ENERGY      -955.446909175818
FINAL SINGLE POINT ENERGY      -955.446987833384
FINAL SINGLE POINT ENERGY      -955.447019079834
FINAL SINGLE POINT ENERGY      -955.447032585767
FINAL SINGLE POINT ENERGY      -955.447042291829
FINAL SINGLE POINT ENERGY      -955.447046094065
FINAL SINGLE POINT ENERGY      -955.447050136997
FINAL SINGLE POINT ENERGY      -955.447052561327
                    ***********************HURRAY********************
FINAL SINGLE POINT ENERGY      -955.447053180800

CARTESIAN COORDINATES (ANGSTROEM)
---------------------------------
  C     -3.003353   -2.421318   -0.245543
  N     -2.322375   -1.123210   -0.263170
  C     -3.119207    0.054783   -0.311352
  C     -4.319003    0.107635    0.391993
  C     -5.106619    1.247866    0.319937
  C     -4.706812    2.331046   -0.451458
  C     -3.515690    2.264291   -1.164142
  C     -2.724523    1.127671   -1.105072
  C     -1.000645   -1.075988   -0.204032
  C      0.027672   -2.102292   -0.292491
  O      0.043276   -3.317605   -0.462326
  C      1.029162   -1.066020   -0.091146
  N      2.352389   -1.093490   -0.050222
  C      3.065835   -2.310870   -0.446205
  C      3.118572    0.044255    0.326595
  C      2.703832    0.833748    1.395081
  C      3.464608    1.928029    1.775300
  C      4.645158    2.230809    1.107552
  C      5.065475    1.425418    0.057357
  C      4.308686    0.330415   -0.335520
  C      0.001237   -0.029549    0.000413
  O     -0.013938    1.180252    0.172354
  H     -3.415111   -2.620857    0.743554
  H     -3.809167   -2.411128   -0.976702
  H     -2.283462   -3.194848   -0.494233
  H     -4.632291   -0.730062    0.999735
  H     -6.035266    1.287623    0.873557
  H     -5.324228    3.217513   -0.505364
  H     -3.204726    3.095956   -1.782469
  H     -1.810354    1.065076   -1.677700
  H      2.370088   -3.143916   -0.425384
  H      3.465887   -2.204795   -1.454383
  H      3.883261   -2.488068    0.249536
  H      1.799266    0.581761    1.929782
  H      3.138603    2.538148    2.607263
  H      5.238649    3.082636    1.411168
  H      5.986317    1.648573   -0.464942
  H      4.638697   -0.289588   -1.157720

 Multiplicity           Mult            ....    1
 Number of Electrons    NEL             ....  154
 Basis Dimension        Dim             .... 1236

ORBITAL ENERGIES
----------------

  NO   OCC          E(Eh)            E(eV)
   0   2.0000     -19.594429      -533.1915
   1   2.0000     -19.593189      -533.1578
   2   2.0000     -14.813449      -403.0944
   3   2.0000     -14.813167      -403.0868
   4   2.0000     -10.627341      -289.1846
   5   2.0000     -10.625768      -289.1418
   6   2.0000     -10.609553      -288.7006
   7   2.0000     -10.609337      -288.6947
   8   2.0000     -10.592105      -288.2258
   9   2.0000     -10.592006      -288.2231
  10   2.0000     -10.566599      -287.5318
  11   2.0000     -10.566507      -287.5293
  12   2.0000     -10.547132      -287.0020
  13   2.0000     -10.547102      -287.0012
  14   2.0000     -10.546456      -286.9837
  15   2.0000     -10.546408      -286.9824
  16   2.0000     -10.545231      -286.9503
  17   2.0000     -10.545227      -286.9502
  18   2.0000     -10.544621      -286.9337
  19   2.0000     -10.544582      -286.9327
  20   2.0000     -10.541797      -286.8569
  21   2.0000     -10.541768      -286.8561
  22   2.0000      -1.157376       -31.4938
  23   2.0000      -1.142025       -31.0761
  24   2.0000      -1.100296       -29.9406
  25   2.0000      -1.098010       -29.8784
  26   2.0000      -0.982526       -26.7359
  27   2.0000      -0.965856       -26.2823
  28   2.0000      -0.955674       -26.0052
  29   2.0000      -0.856853       -23.3162
  30   2.0000      -0.855043       -23.2669
  31   2.0000      -0.854873       -23.2623
  32   2.0000      -0.850593       -23.1458
  33   2.0000      -0.820720       -22.3329
  34   2.0000      -0.798229       -21.7209
  35   2.0000      -0.739995       -20.1363
  36   2.0000      -0.717908       -19.5353
  37   2.0000      -0.696082       -18.9414
  38   2.0000      -0.695092       -18.9144
  39   2.0000      -0.665076       -18.0976
  40   2.0000      -0.652014       -17.7422
  41   2.0000      -0.632281       -17.2052
  42   2.0000      -0.613700       -16.6996
  43   2.0000      -0.582012       -15.8374
  44   2.0000      -0.573234       -15.5985
  45   2.0000      -0.562374       -15.3030
  46   2.0000      -0.550833       -14.9889
  47   2.0000      -0.542959       -14.7747
  48   2.0000      -0.542248       -14.7553
  49   2.0000      -0.535465       -14.5707
  50   2.0000      -0.531738       -14.4693
  51   2.0000      -0.514366       -13.9966
  52   2.0000      -0.508620       -13.8403
  53   2.0000      -0.506062       -13.7706
  54   2.0000      -0.500644       -13.6232
  55   2.0000      -0.493368       -13.4252
  56   2.0000      -0.491177       -13.3656
  57   2.0000      -0.487825       -13.2744
  58   2.0000      -0.469432       -12.7739
  59   2.0000      -0.469281       -12.7698
  60   2.0000      -0.463754       -12.6194
  61   2.0000      -0.449859       -12.2413
  62   2.0000      -0.449185       -12.2229
  63   2.0000      -0.442412       -12.0386
  64   2.0000      -0.421194       -11.4613
  65   2.0000      -0.420857       -11.4521
  66   2.0000      -0.412851       -11.2342
  67   2.0000      -0.410780       -11.1779
  68   2.0000      -0.391186       -10.6447
  69   2.0000      -0.382677       -10.4132
  70   2.0000      -0.351118        -9.5544
  71   2.0000      -0.318294        -8.6612
  72   2.0000      -0.316399        -8.6096
  73   2.0000      -0.315667        -8.5897
  74   2.0000      -0.307147        -8.3579
  75   2.0000      -0.302851        -8.2410
  76   2.0000      -0.237744        -6.4693
  77   0.0000      -0.031760        -0.8642
  78   0.0000      -0.001795        -0.0488
  79   0.0000       0.007522         0.2047
  80   0.0000       0.011652         0.3171
  81   0.0000       0.013597         0.3700

MULLIKEN ATOMIC CHARGES
-----------------------
   0 C :   -1.182090
   1 N :    0.508353
   2 C :    1.530097
   3 C :   -0.506345
   4 C :   -0.377299
   5 C :   -0.280127
   6 C :   -0.611465
   7 C :   -0.242881
   8 C :    0.465667
   9 C :    0.630698
  10 O :   -1.340351
  11 C :    0.452564
  12 N :    0.495552
  13 C :   -1.183586
  14 C :    1.559956
  15 C :   -0.256446
  16 C :   -0.629013
  17 C :   -0.260830
  18 C :   -0.354058
  19 C :   -0.521224
  20 C :    0.503273
  21 O :   -1.094447
  22 H :    0.241058
  23 H :    0.212742
  24 H :    0.303302
  25 H :    0.076755
  26 H :    0.132803
  27 H :    0.123829
  28 H :    0.114531
  29 H :    0.142953
  30 H :    0.300684
  31 H :    0.239577
  32 H :    0.214234
  33 H :    0.143038
  34 H :    0.112469
  35 H :    0.125667
  36 H :    0.134763
  37 H :    0.075599
Sum of atomic charges:   -0.0000000

LOEWDIN ATOMIC CHARGES
----------------------
   0 C :    0.043269
   1 N :    0.036741
   2 C :   -0.450897
   3 C :   -0.052234
   4 C :   -0.128949
   5 C :   -0.143753
   6 C :   -0.120842
   7 C :   -0.054690
   8 C :   -0.246583
   9 C :   -0.635596
  10 O :    0.362220
  11 C :   -0.247478
  12 N :    0.036297
  13 C :    0.043059
  14 C :   -0.451679
  15 C :   -0.055106
  16 C :   -0.121041
  17 C :   -0.143775
  18 C :   -0.128949
  19 C :   -0.051868
  20 C :   -0.611597
  21 O :    0.410580
  22 H :    0.135985
  23 H :    0.142070
  24 H :    0.151518
  25 H :    0.198319
  26 H :    0.172847
  27 H :    0.169962
  28 H :    0.173596
  29 H :    0.211990
  30 H :    0.151460
  31 H :    0.136196
  32 H :    0.141967
  33 H :    0.212154
  34 H :    0.173640
  35 H :    0.169986
  36 H :    0.172880
  37 H :    0.198302

  Mayer bond orders larger than 0.100000
B(  0-C ,  1-N ) :   0.8306 B(  0-C ,  8-C ) :  -0.3403 B(  0-C , 22-H ) :   0.9851
B(  0-C , 23-H ) :   1.0013 B(  0-C , 24-H ) :   0.9023 B(  1-N ,  2-C ) :   0.5694
B(  1-N ,  3-C ) :  -0.2381 B(  1-N ,  7-C ) :  -0.1997 B(  1-N ,  8-C ) :   0.7546
B(  1-N , 11-C ) :   0.1026 B(  1-N , 20-C ) :  -0.1707 B(  2-C ,  3-C ) :   0.5420
B(  2-C ,  4-C ) :  -0.2048 B(  2-C ,  5-C ) :  -0.1530 B(  2-C ,  6-C ) :  -0.3081
B(  2-C ,  7-C ) :   0.6389 B(  2-C ,  8-C ) :  -0.3462 B(  2-C , 20-C ) :   0.1182
B(  2-C , 25-H ) :  -0.1975 B(  2-C , 29-H ) :  -0.2063 B(  3-C ,  4-C ) :   1.0663
B(  3-C , 25-H ) :   1.2596 B(  3-C , 26-H ) :  -0.1178 B(  4-C ,  5-C ) :   1.1425
B(  4-C , 26-H ) :   1.1067 B(  5-C ,  6-C ) :   1.2406 B(  5-C , 27-H ) :   1.0886
B(  6-C ,  7-C ) :   0.9518 B(  6-C , 28-H ) :   1.1680 B(  7-C ,  8-C ) :   0.1092
B(  7-C , 28-H ) :  -0.1552 B(  7-C , 29-H ) :   1.2158 B(  8-C ,  9-C ) :   0.9696
B(  8-C , 10-O ) :   0.3880 B(  8-C , 11-C ) :   0.1549 B(  8-C , 12-N ) :   0.1059
B(  8-C , 20-C ) :   0.9915 B(  8-C , 21-O ) :   0.1452 B(  9-C , 10-O ) :  -0.3594
B(  9-C , 11-C ) :   0.9732 B( 10-O , 11-C ) :   0.3743 B( 11-C , 12-N ) :   0.7524
B( 11-C , 13-C ) :  -0.3099 B( 11-C , 14-C ) :  -0.3153 B( 11-C , 15-C ) :   0.1602
B( 11-C , 20-C ) :   0.9665 B( 11-C , 21-O ) :   0.1203 B( 12-N , 13-C ) :   0.8078
B( 12-N , 14-C ) :   0.5734 B( 12-N , 15-C ) :  -0.1992 B( 12-N , 19-C ) :  -0.2365
B( 12-N , 20-C ) :  -0.1625 B( 13-C , 30-H ) :   0.9056 B( 13-C , 31-H ) :   0.9882
B( 13-C , 32-H ) :   1.0012 B( 14-C , 15-C ) :   0.6154 B( 14-C , 16-C ) :  -0.3094
B( 14-C , 17-C ) :  -0.1544 B( 14-C , 18-C ) :  -0.1782 B( 14-C , 19-C ) :   0.5470
B( 14-C , 33-H ) :  -0.2104 B( 14-C , 37-H ) :  -0.1994 B( 15-C , 16-C ) :   0.9671
B( 15-C , 33-H ) :   1.2120 B( 15-C , 34-H ) :  -0.1515 B( 16-C , 17-C ) :   1.2469
B( 16-C , 34-H ) :   1.1688 B( 17-C , 18-C ) :   1.1137 B( 17-C , 35-H ) :   1.0826
B( 18-C , 19-C ) :   1.0802 B( 18-C , 36-H ) :   1.1033 B( 19-C , 36-H ) :  -0.1079
B( 19-C , 37-H ) :   1.2618 B( 20-C , 21-O ) :   0.2558

-----------------------------------------------------------------------------
         ABSORPTION SPECTRUM VIA TRANSITION ELECTRIC DIPOLE MOMENTS
-----------------------------------------------------------------------------
State   Energy    Wavelength  fosc         T2        TX        TY        TZ
        (cm-1)      (nm)                 (au**2)    (au)      (au)      (au)
-----------------------------------------------------------------------------
   1   28795.6    347.3   1.007484064  11.51828  -3.37884  -0.00103  -0.31888
   2   36453.6    274.3   0.135928454   1.22757   1.10737   0.01353   0.03332
   3   37003.3    270.2   0.021201839   0.18863  -0.19852   0.04991  -0.38305
   4   37875.8    264.0   0.035999563   0.31290  -0.01275   0.55391   0.07700
   5   39641.2    252.3   0.000025696   0.00021  -0.01015   0.00406   0.00968
   6   40008.8    249.9   0.019431850   0.15989  -0.34635  -0.03253   0.19718
   7   41341.5    241.9   0.090858629   0.72353  -0.01084   0.84212   0.11934
   8   42530.0    235.1   0.036762076   0.28456  -0.00779   0.52764   0.07810
   9   42691.7    234.2   0.281941125   2.17416   0.01859  -1.45989  -0.20620
  10   43027.3    232.4   0.003283911   0.02513  -0.14134   0.00877   0.07121

FINAL SINGLE POINT ENERGY      -955.315850975467

DIPOLE MOMENT
-------------
                                X             Y             Z
Electronic contribution:     -0.00310      -0.03415       0.04592
Nuclear contribution   :      0.00083      -0.22871      -0.10106
                        -----------------------------------------
Total Dipole Moment    :     -0.00228      -0.26286      -0.05514
                        -----------------------------------------
Magnitude (a.u.)       :      0.26859
Magnitude (Debye)      :      0.68269

Rotational constants in cm-1:     0.017552     0.005443     0.004396
Rotational constants in MHz :   526.186113   163.162480   131.779925

                             ****ORCA TERMINATED NORMALLY****
TOTAL RUN TIME: 1 days 3 hours 38 minutes 30 seconds 917 msec
