                         Program Version 5.0.2 -  RELEASE  -
|  1> ! pbe0 d3bj aug-cc-PVTZ RIJCOSX Opt
|  2> %maxcore 4000
|  3> %basis
|  4>  AuxJ "aug-cc-PVTZ/JK"
|  5>  AuxC "aug-cc-PVTZ/C"
|  6>  newGTO H "cc-PVTZ" end
|  7>  newAuxJGTO H "cc-PVTZ/JK" end
|  8>  newAuxCGTO H "cc-PVTZ/C" end
|  9> end
| 10> %cpcm
| 11>  SMD true
| 12>  SMDsolvent "n,n-dimethylformamide"
| 13> end
| 14> %pal nprocs 4 end
| 15> * xyz 0 1
| 16> C         -2.82150       -2.31600       -0.52420
| 17> N         -2.34630       -0.95930       -0.29970
| 18> C         -3.31610        0.05570       -0.21380
| 19> C         -4.67480       -0.26280       -0.30710
| 20> C         -5.63820        0.72560       -0.22610
| 21> C         -5.28100        2.05040       -0.05140
| 22> C         -3.93830        2.37360        0.04160
| 23> C         -2.96630        1.39530       -0.03870
| 24> C         -1.01900       -0.81700       -0.19380
| 25> C          0.02650       -1.83130       -0.27030
| 26> O          0.04390       -3.04580       -0.44680
| 27> C          1.04280       -0.80810       -0.05160
| 28> N          2.37350       -0.93840        0.02220
| 29> C          2.88680       -2.29040       -0.13710
| 30> C          3.31410        0.08570        0.23360
| 31> C          2.92730        1.41300        0.42350
| 32> C          3.87120        2.40040        0.62980
| 33> C          5.22180        2.09810        0.65450
| 34> C          5.61550        0.78540        0.46800
| 35> C          4.68050       -0.21160        0.26010
| 36> C         -0.00270        0.21620        0.02390
| 37> O         -0.01980        1.42500        0.19510
| 38> H         -3.45850       -2.63510        0.30220
| 39> H         -3.38190       -2.36850       -1.45870
| 40> H         -1.97410       -2.99420       -0.58860
| 41> H         -5.00960       -1.27710       -0.44140
| 42> H         -6.67990        0.44990       -0.30110
| 43> H         -6.03770        2.81740        0.01150
| 44> H         -3.63630        3.40100        0.17840
| 45> H         -1.93440        1.68880        0.03970
| 46> H          2.05930       -2.98100       -0.28080
| 47> H          3.54010       -2.34620       -1.00910
| 48> H          3.44030       -2.59040        0.75380
| 49> H          1.88820        1.69060        0.41040
| 50> H          3.54070        3.41810        0.77290
| 51> H          5.95640        2.87210        0.81620
| 52> H          6.66400        0.52620        0.48300
| 53> H          5.04340       -1.21540        0.11950
| 54> *
| 55>
| 56>
| 57> $new_job
| 58> ! b2plyp aug-cc-PVTZ RIJCOSX SP
| 59> %maxcore 4000
| 60> %basis
| 61>  AuxJ "aug-cc-PVTZ/JK"
| 62>  AuxC "aug-cc-PVTZ/C"
| 63>  newGTO H "cc-PVTZ" end
| 64>  newAuxJGTO H "cc-PVTZ/JK" end
| 65>  newAuxCGTO H "cc-PVTZ/C" end
| 66> end
| 67> %cpcm
| 68>  SMD true
| 69>  SMDsolvent "n,n-dimethylformamide"
| 70> end
| 71> %pal nprocs 4 end
| 72> %tddft
| 73>  nroots 10
| 74>  maxdim 7
| 75> end
| 76> * xyzfile 0 1
| 77>
| 78>                          ****END OF INPUT****
 Total Charge           Charge          ....    0
 Multiplicity           Mult            ....    1
 Number of Electrons    NEL             ....  154
Dispersion correction           -0.043542189
FINAL SINGLE POINT ENERGY      -954.749373184488
Dispersion correction            ... done
Dispersion correction           -0.043614662
FINAL SINGLE POINT ENERGY      -954.750355700111
Dispersion correction            ... done
Dispersion correction           -0.043543238
FINAL SINGLE POINT ENERGY      -954.750494190944
Dispersion correction            ... done
FINAL SINGLE POINT ENERGY      -954.750615620327
FINAL SINGLE POINT ENERGY      -954.750645035598
FINAL SINGLE POINT ENERGY      -954.750724497494
FINAL SINGLE POINT ENERGY      -954.750903032978
FINAL SINGLE POINT ENERGY      -954.751140144717
FINAL SINGLE POINT ENERGY      -954.751656566352
FINAL SINGLE POINT ENERGY      -954.753150308186
FINAL SINGLE POINT ENERGY      -954.757727529684
FINAL SINGLE POINT ENERGY      -954.758353260050
FINAL SINGLE POINT ENERGY      -954.758718855240
FINAL SINGLE POINT ENERGY      -954.758963130871
FINAL SINGLE POINT ENERGY      -954.759012021502
FINAL SINGLE POINT ENERGY      -954.759041579791
FINAL SINGLE POINT ENERGY      -954.759054188266
Dispersion correction            ... done
Dispersion correction           -0.043868452
FINAL SINGLE POINT ENERGY      -954.759057823815
Dispersion correction            ... done
                    ***********************HURRAY********************
Dispersion correction           -0.043868147
FINAL SINGLE POINT ENERGY      -954.759058932770

CARTESIAN COORDINATES (ANGSTROEM)
---------------------------------
  C     -2.959278   -2.374882   -0.724748
  N     -2.317177   -1.097228   -0.438451
  C     -3.130427    0.029780   -0.181386
  C     -4.365388   -0.133369    0.440524
  C     -5.164853    0.972435    0.683517
  C     -4.745941    2.240643    0.307090
  C     -3.521967    2.394811   -0.330115
  C     -2.717150    1.296850   -0.583589
  C     -0.995548   -1.035703   -0.387762
  C      0.053336   -1.966714   -0.790663
  O      0.090159   -3.067798   -1.330159
  C      1.039790   -1.025749   -0.269796
  N      2.358935   -1.073109   -0.168537
  C      3.043647   -2.341426   -0.390834
  C      3.127091    0.059766    0.185347
  C      2.745827    1.327457   -0.245989
  C      3.510214    2.429434    0.098945
  C      4.663690    2.279325    0.857097
  C      5.051657    1.011504    1.265983
  C      4.290953   -0.098489    0.932905
  C     -0.011599   -0.107834    0.180552
  O     -0.052302    0.931486    0.818599
  H     -3.343099   -2.826061    0.192129
  H     -3.781326   -2.222031   -1.422984
  H     -2.220890   -3.042963   -1.162222
  H     -4.698171   -1.116555    0.745975
  H     -6.120922    0.837294    1.175153
  H     -5.373369    3.102370    0.499873
  H     -3.192602    3.377691   -0.645555
  H     -1.777014    1.419571   -1.103442
  H      2.363332   -3.016666   -0.904759
  H      3.931594   -2.174971   -0.999711
  H      3.336476   -2.792182    0.559131
  H      1.864103    1.447819   -0.859904
  H      3.206628    3.412379   -0.241302
  H      5.260770    3.144292    1.119346
  H      5.952320    0.879736    1.853742
  H      4.598399   -1.081014    1.265603

 Multiplicity           Mult            ....    1
 Number of Electrons    NEL             ....  154
 Basis Dimension        Dim             .... 1236

ORBITAL ENERGIES
----------------

  NO   OCC          E(Eh)            E(eV)
   0   2.0000     -19.692953      -535.8725
   1   2.0000     -19.692261      -535.8537
   2   2.0000     -14.902657      -405.5219
   3   2.0000     -14.902346      -405.5135
   4   2.0000     -10.707999      -291.3795
   5   2.0000     -10.706339      -291.3343
   6   2.0000     -10.689329      -290.8714
   7   2.0000     -10.689307      -290.8708
   8   2.0000     -10.667530      -290.2782
   9   2.0000     -10.667397      -290.2746
  10   2.0000     -10.641644      -289.5739
  11   2.0000     -10.641602      -289.5727
  12   2.0000     -10.621212      -289.0179
  13   2.0000     -10.621196      -289.0174
  14   2.0000     -10.620710      -289.0042
  15   2.0000     -10.620677      -289.0033
  16   2.0000     -10.620208      -288.9905
  17   2.0000     -10.620205      -288.9905
  18   2.0000     -10.619655      -288.9755
  19   2.0000     -10.619624      -288.9747
  20   2.0000     -10.616416      -288.8874
  21   2.0000     -10.616391      -288.8867
  22   2.0000      -1.178314       -32.0636
  23   2.0000      -1.162729       -31.6395
  24   2.0000      -1.123883       -30.5824
  25   2.0000      -1.121151       -30.5081
  26   2.0000      -0.998547       -27.1718
  27   2.0000      -0.983471       -26.7616
  28   2.0000      -0.972059       -26.4511
  29   2.0000      -0.871493       -23.7145
  30   2.0000      -0.869570       -23.6622
  31   2.0000      -0.869478       -23.6597
  32   2.0000      -0.864869       -23.5343
  33   2.0000      -0.831301       -22.6209
  34   2.0000      -0.808638       -22.0041
  35   2.0000      -0.750876       -20.4324
  36   2.0000      -0.727490       -19.7960
  37   2.0000      -0.703408       -19.1407
  38   2.0000      -0.702838       -19.1252
  39   2.0000      -0.673627       -18.3303
  40   2.0000      -0.659138       -17.9361
  41   2.0000      -0.637132       -17.3372
  42   2.0000      -0.616434       -16.7740
  43   2.0000      -0.585365       -15.9286
  44   2.0000      -0.572881       -15.5889
  45   2.0000      -0.559063       -15.2129
  46   2.0000      -0.553243       -15.0545
  47   2.0000      -0.547847       -14.9077
  48   2.0000      -0.546591       -14.8735
  49   2.0000      -0.534370       -14.5409
  50   2.0000      -0.526511       -14.3271
  51   2.0000      -0.518783       -14.1168
  52   2.0000      -0.515579       -14.0296
  53   2.0000      -0.505324       -13.7506
  54   2.0000      -0.500904       -13.6303
  55   2.0000      -0.495227       -13.4758
  56   2.0000      -0.492353       -13.3976
  57   2.0000      -0.485452       -13.2098
  58   2.0000      -0.472687       -12.8625
  59   2.0000      -0.466378       -12.6908
  60   2.0000      -0.462199       -12.5771
  61   2.0000      -0.440001       -11.9730
  62   2.0000      -0.439658       -11.9637
  63   2.0000      -0.433127       -11.7860
  64   2.0000      -0.425677       -11.5832
  65   2.0000      -0.423248       -11.5172
  66   2.0000      -0.411719       -11.2034
  67   2.0000      -0.411618       -11.2007
  68   2.0000      -0.387131       -10.5344
  69   2.0000      -0.375954       -10.2302
  70   2.0000      -0.347022        -9.4430
  71   2.0000      -0.306515        -8.3407
  72   2.0000      -0.301663        -8.2087
  73   2.0000      -0.296937        -8.0801
  74   2.0000      -0.295836        -8.0501
  75   2.0000      -0.283319        -7.7095
  76   2.0000      -0.225411        -6.1337
  77   0.0000      -0.013126        -0.3572
  78   0.0000       0.017596         0.4788
  79   0.0000       0.024475         0.6660
  80   0.0000       0.028953         0.7879
  81   0.0000       0.034052         0.9266

MULLIKEN ATOMIC CHARGES
-----------------------
   0 C :   -0.959911
   1 N :    0.330102
   2 C :    1.232271
   3 C :   -0.636874
   4 C :   -0.365834
   5 C :   -0.404809
   6 C :   -0.520740
   7 C :   -0.235849
   8 C :    0.224227
   9 C :    0.742154
  10 O :   -1.185136
  11 C :    0.184370
  12 N :    0.368197
  13 C :   -0.953214
  14 C :    1.137339
  15 C :   -0.237079
  16 C :   -0.522298
  17 C :   -0.352856
  18 C :   -0.392338
  19 C :   -0.607119
  20 C :    0.880868
  21 O :   -1.137419
  22 H :    0.211015
  23 H :    0.203382
  24 H :    0.271057
  25 H :    0.173300
  26 H :    0.222193
  27 H :    0.231369
  28 H :    0.217480
  29 H :    0.178714
  30 H :    0.274394
  31 H :    0.201422
  32 H :    0.210092
  33 H :    0.163016
  34 H :    0.222554
  35 H :    0.226392
  36 H :    0.235994
  37 H :    0.169574
Sum of atomic charges:   -0.0000000

LOEWDIN ATOMIC CHARGES
----------------------
   0 C :    0.036626
   1 N :    0.036343
   2 C :   -0.444541
   3 C :   -0.053842
   4 C :   -0.131584
   5 C :   -0.146019
   6 C :   -0.123607
   7 C :   -0.051111
   8 C :   -0.234896
   9 C :   -0.622735
  10 O :    0.346055
  11 C :   -0.235234
  12 N :    0.036942
  13 C :    0.036356
  14 C :   -0.443316
  15 C :   -0.051836
  16 C :   -0.123596
  17 C :   -0.146081
  18 C :   -0.131665
  19 C :   -0.054359
  20 C :   -0.603797
  21 O :    0.396681
  22 H :    0.135227
  23 H :    0.140814
  24 H :    0.152096
  25 H :    0.197764
  26 H :    0.173438
  27 H :    0.170051
  28 H :    0.174028
  29 H :    0.211143
  30 H :    0.152145
  31 H :    0.140889
  32 H :    0.135251
  33 H :    0.211170
  34 H :    0.174067
  35 H :    0.170066
  36 H :    0.173419
  37 H :    0.197645

  Mayer bond orders larger than 0.100000
B(  0-C ,  1-N ) :   0.9373 B(  0-C ,  2-C ) :  -0.1277 B(  0-C ,  8-C ) :  -0.1152
B(  0-C , 22-H ) :   0.9952 B(  0-C , 23-H ) :   0.9994 B(  0-C , 24-H ) :   0.9362
B(  1-N ,  2-C ) :   0.5526 B(  1-N ,  3-C ) :  -0.1645 B(  1-N ,  7-C ) :  -0.1600
B(  1-N ,  8-C ) :   0.8260 B(  1-N , 11-C ) :   0.1529 B(  1-N , 20-C ) :  -0.2191
B(  2-C ,  3-C ) :   0.6997 B(  2-C ,  4-C ) :  -0.1675 B(  2-C ,  5-C ) :  -0.1753
B(  2-C ,  6-C ) :  -0.1770 B(  2-C ,  7-C ) :   0.8579 B(  2-C ,  8-C ) :  -0.2818
B(  2-C ,  9-C ) :   0.1445 B(  2-C , 20-C ) :   0.1199 B(  3-C ,  4-C ) :   1.1691
B(  3-C ,  5-C ) :   0.1141 B(  3-C ,  6-C ) :   0.1702 B(  3-C , 25-H ) :   1.0382
B(  4-C ,  5-C ) :   1.2585 B(  4-C , 26-H ) :   0.9983 B(  5-C ,  6-C ) :   1.2364
B(  5-C , 27-H ) :   0.9667 B(  6-C ,  7-C ) :   1.0088 B(  6-C ,  8-C ) :   0.1083
B(  6-C , 28-H ) :   1.0204 B(  7-C , 29-H ) :   1.0408 B(  8-C ,  9-C ) :   0.7226
B(  8-C , 10-O ) :   0.3870 B(  8-C , 11-C ) :   0.2073 B(  8-C , 12-N ) :   0.1630
B(  8-C , 20-C ) :   0.8579 B(  8-C , 21-O ) :   0.1438 B(  9-C , 11-C ) :   0.6709
B(  9-C , 12-N ) :  -0.1029 B(  9-C , 14-C ) :   0.1642 B(  9-C , 20-C ) :  -0.2259
B( 10-O , 11-C ) :   0.3791 B( 10-O , 20-C ) :   0.1009 B( 11-C , 12-N ) :   0.7997
B( 11-C , 14-C ) :  -0.3143 B( 11-C , 20-C ) :   0.8408 B( 11-C , 21-O ) :   0.1202
B( 12-N , 13-C ) :   0.9451 B( 12-N , 14-C ) :   0.5554 B( 12-N , 15-C ) :  -0.1700
B( 12-N , 19-C ) :  -0.1735 B( 12-N , 20-C ) :  -0.2282 B( 13-C , 14-C ) :  -0.1169
B( 13-C , 30-H ) :   0.9328 B( 13-C , 31-H ) :   0.9993 B( 13-C , 32-H ) :   0.9953
B( 14-C , 15-C ) :   0.9467 B( 14-C , 16-C ) :  -0.1509 B( 14-C , 17-C ) :  -0.1373
B( 14-C , 18-C ) :  -0.1735 B( 14-C , 19-C ) :   0.7553 B( 14-C , 20-C ) :   0.1436
B( 15-C , 16-C ) :   1.0128 B( 15-C , 33-H ) :   1.0526 B( 16-C , 17-C ) :   1.2152
B( 16-C , 19-C ) :   0.1581 B( 16-C , 34-H ) :   1.0112 B( 17-C , 18-C ) :   1.2571
B( 17-C , 35-H ) :   0.9750 B( 18-C , 19-C ) :   1.1615 B( 18-C , 36-H ) :   0.9784
B( 19-C , 37-H ) :   1.0470 B( 20-C , 21-O ) :   0.4734

MP2 TOTAL ENERGY:     -955.058111081 Eh

-----------------------------------------------------------------------------
         ABSORPTION SPECTRUM VIA TRANSITION ELECTRIC DIPOLE MOMENTS
-----------------------------------------------------------------------------
State   Energy    Wavelength  fosc         T2        TX        TY        TZ
        (cm-1)      (nm)                 (au**2)    (au)      (au)      (au)
-----------------------------------------------------------------------------
   1   26771.6    373.5   1.079270136  13.27187   3.63689   0.01993   0.21102
   2   29141.5    343.2   0.002662159   0.03007  -0.00913  -0.17254  -0.01483
   3   36347.8    275.1   0.018924537   0.17140   0.01233   0.23601  -0.33993
   4   36933.3    270.8   0.007136291   0.06361  -0.25206   0.00872   0.00039
   5   37394.4    267.4   0.006271179   0.05521   0.00814   0.02195  -0.23380
   6   37593.8    266.0   0.000711035   0.00623   0.04447  -0.05491  -0.03512
   7   38629.4    258.9   0.088805272   0.75683  -0.02881   0.65559   0.57113
   8   39945.1    250.3   0.270298742   2.22770  -0.03715   1.39289   0.53495
   9   41088.4    243.4   0.000660838   0.00529  -0.07055  -0.01446  -0.01040
  10   41771.7    239.4   0.018640547   0.14691   0.00145   0.38168  -0.03502

Dispersion correction           -0.038973666
FINAL SINGLE POINT ENERGY      -953.729278255765

DIPOLE MOMENT
-------------
                                X             Y             Z
Electronic contribution:      0.00601       0.06514      -0.35993
Nuclear contribution   :     -0.00184      -0.36178       0.26370
                        -----------------------------------------
Total Dipole Moment    :      0.00418      -0.29664      -0.09623
                        -----------------------------------------
Magnitude (a.u.)       :      0.31189
Magnitude (Debye)      :      0.79276

Rotational constants in cm-1:     0.017773     0.005501     0.004365
Rotational constants in MHz :   532.834124   164.919609   130.866810

                             ****ORCA TERMINATED NORMALLY****
TOTAL RUN TIME: 0 days 19 hours 37 minutes 13 seconds 847 msec
