                         Program Version 5.0.2 -  RELEASE  -
|  1> ! pbe0 d3bj aug-cc-PVTZ RIJCOSX Opt
|  2> %maxcore 4000
|  3> %basis
|  4>  AuxJ "aug-cc-PVTZ/JK"
|  5>  AuxC "aug-cc-PVTZ/C"
|  6>  newGTO H "cc-PVTZ" end
|  7>  newAuxJGTO H "cc-PVTZ/JK" end
|  8>  newAuxCGTO H "cc-PVTZ/C" end
|  9> end
| 10> %cpcm
| 11>  SMD true
| 12>  SMDsolvent "n,n-dimethylformamide"
| 13> end
| 14> %pal nprocs 4 end
| 15> * xyz 0 1
| 16> C         -2.82150       -2.31600       -0.52420
| 17> N         -2.34630       -0.95930       -0.29970
| 18> C         -3.31610        0.05570       -0.21380
| 19> C         -4.67480       -0.26280       -0.30710
| 20> C         -5.63820        0.72560       -0.22610
| 21> C         -5.28100        2.05040       -0.05140
| 22> C         -3.93830        2.37360        0.04160
| 23> C         -2.96630        1.39530       -0.03870
| 24> C         -1.01900       -0.81700       -0.19380
| 25> C          0.02650       -1.83130       -0.27030
| 26> O          0.04390       -3.04580       -0.44680
| 27> C          1.04280       -0.80810       -0.05160
| 28> N          2.37350       -0.93840        0.02220
| 29> C          2.88680       -2.29040       -0.13710
| 30> C          3.31410        0.08570        0.23360
| 31> C          2.92730        1.41300        0.42350
| 32> C          3.87120        2.40040        0.62980
| 33> C          5.22180        2.09810        0.65450
| 34> C          5.61550        0.78540        0.46800
| 35> C          4.68050       -0.21160        0.26010
| 36> C         -0.00270        0.21620        0.02390
| 37> O         -0.01980        1.42500        0.19510
| 38> H         -3.45850       -2.63510        0.30220
| 39> H         -3.38190       -2.36850       -1.45870
| 40> H         -1.97410       -2.99420       -0.58860
| 41> H         -5.00960       -1.27710       -0.44140
| 42> H         -6.67990        0.44990       -0.30110
| 43> H         -6.03770        2.81740        0.01150
| 44> H         -3.63630        3.40100        0.17840
| 45> H         -1.93440        1.68880        0.03970
| 46> H          2.05930       -2.98100       -0.28080
| 47> H          3.54010       -2.34620       -1.00910
| 48> H          3.44030       -2.59040        0.75380
| 49> H          1.88820        1.69060        0.41040
| 50> H          3.54070        3.41810        0.77290
| 51> H          5.95640        2.87210        0.81620
| 52> H          6.66400        0.52620        0.48300
| 53> H          5.04340       -1.21540        0.11950
| 54> *
| 55>
| 56>
| 57> $new_job
| 58> ! b2gp-plyp aug-cc-PVTZ RIJCOSX SP
| 59> %maxcore 4000
| 60> %basis
| 61>  AuxJ "aug-cc-PVTZ/JK"
| 62>  AuxC "aug-cc-PVTZ/C"
| 63>  newGTO H "cc-PVTZ" end
| 64>  newAuxJGTO H "cc-PVTZ/JK" end
| 65>  newAuxCGTO H "cc-PVTZ/C" end
| 66> end
| 67> %cpcm
| 68>  SMD true
| 69>  SMDsolvent "n,n-dimethylformamide"
| 70> end
| 71> %pal nprocs 4 end
| 72> %tddft
| 73>  nroots 10
| 74>  maxdim 7
| 75> end
| 76> * xyzfile 0 1
| 77>
| 78>                          ****END OF INPUT****
 Total Charge           Charge          ....    0
 Multiplicity           Mult            ....    1
 Number of Electrons    NEL             ....  154
Dispersion correction           -0.043542189
FINAL SINGLE POINT ENERGY      -954.749373182272
Dispersion correction            ... done
Dispersion correction           -0.043614662
FINAL SINGLE POINT ENERGY      -954.750355645192
Dispersion correction            ... done
Dispersion correction           -0.043543243
FINAL SINGLE POINT ENERGY      -954.750494054716
Dispersion correction            ... done
FINAL SINGLE POINT ENERGY      -954.750615745977
FINAL SINGLE POINT ENERGY      -954.750644558451
FINAL SINGLE POINT ENERGY      -954.750724142702
FINAL SINGLE POINT ENERGY      -954.750892729147
FINAL SINGLE POINT ENERGY      -954.751102081042
FINAL SINGLE POINT ENERGY      -954.751510739861
FINAL SINGLE POINT ENERGY      -954.752819257407
FINAL SINGLE POINT ENERGY      -954.755618649192
FINAL SINGLE POINT ENERGY      -954.756351050724
FINAL SINGLE POINT ENERGY      -954.756873881202
FINAL SINGLE POINT ENERGY      -954.757069812087
FINAL SINGLE POINT ENERGY      -954.757177560491
FINAL SINGLE POINT ENERGY      -954.757202642451
FINAL SINGLE POINT ENERGY      -954.757210634809
Dispersion correction            ... done
Dispersion correction           -0.043680499
FINAL SINGLE POINT ENERGY      -954.757214796717
Dispersion correction            ... done
                    ***********************HURRAY********************
Dispersion correction           -0.043680780
FINAL SINGLE POINT ENERGY      -954.757215062524

CARTESIAN COORDINATES (ANGSTROEM)
---------------------------------
  C     -2.984768   -2.401265   -0.275343
  N     -2.325439   -1.099381   -0.272571
  C     -3.136051    0.060811   -0.311917
  C     -4.350601    0.080108    0.367394
  C     -5.159832    1.203621    0.298252
  C     -4.769619    2.307437   -0.446814
  C     -3.562750    2.277241   -1.132881
  C     -2.749810    1.157446   -1.076413
  C     -1.003610   -1.044900   -0.208050
  C      0.025626   -2.071650   -0.316742
  O      0.040594   -3.282963   -0.516953
  C      1.030989   -1.040000   -0.087948
  N      2.352390   -1.075819   -0.047069
  C      3.048655   -2.301298   -0.425447
  C      3.134084    0.044882    0.330802
  C      2.758518    0.821619    1.421856
  C      3.543325    1.898441    1.800317
  C      4.709021    2.198288    1.108014
  C      5.089181    1.407842    0.032681
  C      4.308411    0.331178   -0.358034
  C      0.000676   -0.001860    0.026441
  O     -0.012411    1.202840    0.227734
  H     -3.414497   -2.616842    0.704669
  H     -3.776761   -2.405454   -1.023693
  H     -2.247523   -3.164899   -0.510359
  H     -4.661504   -0.772402    0.957150
  H     -6.101383    1.213204    0.834315
  H     -5.406039    3.182446   -0.500534
  H     -3.255025    3.126407   -1.731668
  H     -1.822775    1.127559   -1.631823
  H      2.332524   -3.119202   -0.439837
  H      3.489486   -2.201352   -1.418734
  H      3.836519   -2.508342    0.298061
  H      1.863959    0.574680    1.976914
  H      3.246488    2.498726    2.652193
  H      5.322839    3.037765    1.411475
  H      5.998771    1.629785   -0.512600
  H      4.608244   -0.274797   -1.203237

 Multiplicity           Mult            ....    1
 Number of Electrons    NEL             ....  154
 Basis Dimension        Dim             .... 1236

ORBITAL ENERGIES
----------------

  NO   OCC          E(Eh)            E(eV)
   0   2.0000     -19.906163      -541.6742
   1   2.0000     -19.904692      -541.6342
   2   2.0000     -15.088775      -410.5864
   3   2.0000     -15.088047      -410.5666
   4   2.0000     -10.871438      -295.8269
   5   2.0000     -10.868844      -295.7563
   6   2.0000     -10.854143      -295.3563
   7   2.0000     -10.853416      -295.3365
   8   2.0000     -10.827557      -294.6328
   9   2.0000     -10.827336      -294.6268
  10   2.0000     -10.800916      -293.9079
  11   2.0000     -10.800664      -293.9010
  12   2.0000     -10.781754      -293.3864
  13   2.0000     -10.781403      -293.3769
  14   2.0000     -10.781080      -293.3681
  15   2.0000     -10.780627      -293.3558
  16   2.0000     -10.780541      -293.3534
  17   2.0000     -10.780314      -293.3473
  18   2.0000     -10.779926      -293.3367
  19   2.0000     -10.779606      -293.3280
  20   2.0000     -10.777220      -293.2631
  21   2.0000     -10.776686      -293.2485
  22   2.0000      -1.230881       -33.4940
  23   2.0000      -1.214830       -33.0572
  24   2.0000      -1.172551       -31.9067
  25   2.0000      -1.170163       -31.8418
  26   2.0000      -1.046073       -28.4651
  27   2.0000      -1.030333       -28.0368
  28   2.0000      -1.018126       -27.7046
  29   2.0000      -0.913888       -24.8682
  30   2.0000      -0.911721       -24.8092
  31   2.0000      -0.911464       -24.8022
  32   2.0000      -0.907272       -24.6881
  33   2.0000      -0.870903       -23.6985
  34   2.0000      -0.846827       -23.0433
  35   2.0000      -0.786907       -21.4128
  36   2.0000      -0.762450       -20.7473
  37   2.0000      -0.740312       -20.1449
  38   2.0000      -0.739106       -20.1121
  39   2.0000      -0.710005       -19.3202
  40   2.0000      -0.693132       -18.8611
  41   2.0000      -0.668354       -18.1868
  42   2.0000      -0.646509       -17.5924
  43   2.0000      -0.613814       -16.7027
  44   2.0000      -0.603926       -16.4337
  45   2.0000      -0.589025       -16.0282
  46   2.0000      -0.582174       -15.8417
  47   2.0000      -0.577803       -15.7228
  48   2.0000      -0.569794       -15.5049
  49   2.0000      -0.566304       -15.4099
  50   2.0000      -0.560796       -15.2600
  51   2.0000      -0.544763       -14.8237
  52   2.0000      -0.537606       -14.6290
  53   2.0000      -0.535420       -14.5695
  54   2.0000      -0.528546       -14.3825
  55   2.0000      -0.520914       -14.1748
  56   2.0000      -0.520422       -14.1614
  57   2.0000      -0.509821       -13.8729
  58   2.0000      -0.500405       -13.6167
  59   2.0000      -0.493498       -13.4288
  60   2.0000      -0.488563       -13.2945
  61   2.0000      -0.463372       -12.6090
  62   2.0000      -0.461769       -12.5654
  63   2.0000      -0.457495       -12.4491
  64   2.0000      -0.450034       -12.2460
  65   2.0000      -0.448979       -12.2173
  66   2.0000      -0.438452       -11.9309
  67   2.0000      -0.436586       -11.8801
  68   2.0000      -0.407085       -11.0773
  69   2.0000      -0.397973       -10.8294
  70   2.0000      -0.374010       -10.1773
  71   2.0000      -0.330443        -8.9918
  72   2.0000      -0.316389        -8.6094
  73   2.0000      -0.312951        -8.5158
  74   2.0000      -0.308245        -8.3878
  75   2.0000      -0.303886        -8.2692
  76   2.0000      -0.237785        -6.4705
  77   0.0000       0.006664         0.1813
  78   0.0000       0.024078         0.6552
  79   0.0000       0.030827         0.8388
  80   0.0000       0.035275         0.9599
  81   0.0000       0.040032         1.0893

MULLIKEN ATOMIC CHARGES
-----------------------
   0 C :   -0.992662
   1 N :    0.351203
   2 C :    1.092082
   3 C :   -0.570783
   4 C :   -0.381745
   5 C :   -0.345047
   6 C :   -0.606903
   7 C :   -0.256053
   8 C :    0.358250
   9 C :    0.873486
  10 O :   -1.216327
  11 C :    0.271934
  12 N :    0.341098
  13 C :   -0.993434
  14 C :    1.270840
  15 C :   -0.438253
  16 C :   -0.587501
  17 C :   -0.307082
  18 C :   -0.346891
  19 C :   -0.611479
  20 C :    0.597929
  21 O :   -1.103947
  22 H :    0.223511
  23 H :    0.208332
  24 H :    0.289609
  25 H :    0.178646
  26 H :    0.239366
  27 H :    0.243676
  28 H :    0.225195
  29 H :    0.189742
  30 H :    0.284915
  31 H :    0.223179
  32 H :    0.215141
  33 H :    0.188212
  34 H :    0.230343
  35 H :    0.249965
  36 H :    0.241785
  37 H :    0.169669
Sum of atomic charges:   -0.0000000

LOEWDIN ATOMIC CHARGES
----------------------
   0 C :    0.037183
   1 N :    0.035943
   2 C :   -0.447990
   3 C :   -0.052907
   4 C :   -0.131968
   5 C :   -0.146033
   6 C :   -0.123776
   7 C :   -0.050684
   8 C :   -0.227552
   9 C :   -0.622946
  10 O :    0.337070
  11 C :   -0.226616
  12 N :    0.035993
  13 C :    0.040329
  14 C :   -0.449528
  15 C :   -0.049823
  16 C :   -0.123215
  17 C :   -0.145396
  18 C :   -0.130893
  19 C :   -0.051058
  20 C :   -0.592544
  21 O :    0.383568
  22 H :    0.134648
  23 H :    0.140326
  24 H :    0.151190
  25 H :    0.197675
  26 H :    0.173590
  27 H :    0.170531
  28 H :    0.174282
  29 H :    0.209579
  30 H :    0.151036
  31 H :    0.134771
  32 H :    0.139804
  33 H :    0.209071
  34 H :    0.174265
  35 H :    0.170821
  36 H :    0.173677
  37 H :    0.197574

  Mayer bond orders larger than 0.100000
B(  0-C ,  1-N ) :   1.0027 B(  0-C ,  2-C ) :  -0.1156 B(  0-C ,  8-C ) :  -0.2359
B(  0-C , 22-H ) :   0.9949 B(  0-C , 23-H ) :   1.0045 B(  0-C , 24-H ) :   0.9281
B(  1-N ,  2-C ) :   0.5698 B(  1-N ,  3-C ) :  -0.1772 B(  1-N ,  7-C ) :  -0.1874
B(  1-N ,  8-C ) :   0.7937 B(  1-N , 11-C ) :   0.1064 B(  1-N , 20-C ) :  -0.2341
B(  2-C ,  3-C ) :   0.7401 B(  2-C ,  4-C ) :  -0.1479 B(  2-C ,  5-C ) :  -0.1404
B(  2-C ,  6-C ) :  -0.2033 B(  2-C ,  7-C ) :   0.8595 B(  2-C ,  8-C ) :  -0.2941
B(  2-C ,  9-C ) :   0.1079 B(  2-C , 20-C ) :   0.1518 B(  3-C ,  4-C ) :   1.1940
B(  3-C ,  6-C ) :   0.1293 B(  3-C ,  8-C ) :   0.1298 B(  3-C , 25-H ) :   1.0567
B(  4-C ,  5-C ) :   1.2149 B(  4-C , 26-H ) :   0.9846 B(  5-C ,  6-C ) :   1.2216
B(  5-C , 27-H ) :   0.9685 B(  6-C ,  7-C ) :   1.0493 B(  6-C , 28-H ) :   1.0364
B(  7-C , 29-H ) :   1.0444 B(  8-C ,  9-C ) :   0.7946 B(  8-C , 10-O ) :   0.3646
B(  8-C , 11-C ) :   0.1857 B(  8-C , 12-N ) :   0.1601 B(  8-C , 20-C ) :   0.8565
B(  8-C , 21-O ) :   0.1033 B(  9-C , 11-C ) :   0.7360 B(  9-C , 20-C ) :  -0.2940
B( 10-O , 11-C ) :   0.3561 B( 11-C , 12-N ) :   0.9161 B( 11-C , 13-C ) :  -0.1589
B( 11-C , 14-C ) :  -0.2953 B( 11-C , 20-C ) :   0.8647 B( 11-C , 21-O ) :   0.1459
B( 12-N , 13-C ) :   0.9135 B( 12-N , 14-C ) :   0.5881 B( 12-N , 19-C ) :  -0.1584
B( 12-N , 20-C ) :  -0.2634 B( 13-C , 14-C ) :  -0.1268 B( 13-C , 30-H ) :   0.9392
B( 13-C , 31-H ) :   0.9959 B( 13-C , 32-H ) :   0.9963 B( 14-C , 15-C ) :   0.6566
B( 14-C , 16-C ) :  -0.2271 B( 14-C , 17-C ) :  -0.1445 B( 14-C , 18-C ) :  -0.1006
B( 14-C , 19-C ) :   0.7395 B( 14-C , 20-C ) :   0.1547 B( 14-C , 33-H ) :  -0.1004
B( 15-C , 16-C ) :   1.1106 B( 15-C , 19-C ) :   0.1062 B( 15-C , 33-H ) :   1.0588
B( 16-C , 17-C ) :   1.2459 B( 16-C , 19-C ) :   0.1600 B( 16-C , 34-H ) :   1.0170
B( 17-C , 18-C ) :   1.1535 B( 17-C , 35-H ) :   0.9544 B( 18-C , 19-C ) :   1.2222
B( 18-C , 36-H ) :   0.9868 B( 19-C , 37-H ) :   1.0829 B( 20-C , 21-O ) :   0.5891

MP2 TOTAL ENERGY:     -954.872379399 Eh

-----------------------------------------------------------------------------
         ABSORPTION SPECTRUM VIA TRANSITION ELECTRIC DIPOLE MOMENTS
-----------------------------------------------------------------------------
State   Energy    Wavelength  fosc         T2        TX        TY        TZ
        (cm-1)      (nm)                 (au**2)    (au)      (au)      (au)
-----------------------------------------------------------------------------
   1   26890.8    371.9   0.956835430  11.71411  -3.40871   0.03472  -0.30591
   2   36807.4    271.7   0.020647483   0.18467   0.08983  -0.07492   0.41351
   3   31751.1    315.0   0.044742894   0.46392  -0.67960  -0.02648  -0.03698
   4   37577.4    266.1   0.107635664   0.94299  -0.03282   0.95724   0.15998
   5   38432.9    260.2   0.002581643   0.02211   0.08543   0.12170  -0.00205
   6   38644.1    258.8   0.021621077   0.18419  -0.38242  -0.05113   0.18798
   7   41411.2    241.5   0.074395277   0.59143  -0.01069   0.76022   0.11566
   8   42275.4    236.5   0.029321129   0.22833  -0.01602   0.47254   0.06918
   9   42783.8    233.7   0.001768824   0.01361   0.09618  -0.00015  -0.06603
  10   41849.7    239.0   0.072352614   0.56916   0.00228   0.74447   0.12215

Dispersion correction           -0.028715125
FINAL SINGLE POINT ENERGY      -953.206956492822

DIPOLE MOMENT
-------------
                                X             Y             Z
Electronic contribution:      0.05986       0.11483       0.07491
Nuclear contribution   :      0.01212      -0.40426      -0.12076
                        -----------------------------------------
Total Dipole Moment    :      0.07198      -0.28944      -0.04586
                        -----------------------------------------
Magnitude (a.u.)       :      0.30176
Magnitude (Debye)      :      0.76700

Rotational constants in cm-1:     0.017812     0.005362     0.004357
Rotational constants in MHz :   533.984681   160.743975   130.620361

                             ****ORCA TERMINATED NORMALLY****
TOTAL RUN TIME: 1 days 4 hours 48 minutes 27 seconds 263 msec
