                         Program Version 5.0.2 -  RELEASE  -
|  1> ! pbe0 aug-cc-PVTZ RIJCOSX Opt
|  2> %maxcore 4000
|  3> %basis
|  4>  AuxJ "aug-cc-PVTZ/JK"
|  5>  AuxC "aug-cc-PVTZ/C"
|  6>  newGTO H "cc-PVTZ" end
|  7>  newAuxJGTO H "cc-PVTZ/JK" end
|  8>  newAuxCGTO H "cc-PVTZ/C" end
|  9> end
| 10> %cpcm
| 11>  SMD true
| 12>  SMDsolvent "n,n-dimethylformamide"
| 13> end
| 14> %pal nprocs 4 end
| 15> * xyz 0 1
| 16> C         -2.82150       -2.31600       -0.52420
| 17> N         -2.34630       -0.95930       -0.29970
| 18> C         -3.31610        0.05570       -0.21380
| 19> C         -4.67480       -0.26280       -0.30710
| 20> C         -5.63820        0.72560       -0.22610
| 21> C         -5.28100        2.05040       -0.05140
| 22> C         -3.93830        2.37360        0.04160
| 23> C         -2.96630        1.39530       -0.03870
| 24> C         -1.01900       -0.81700       -0.19380
| 25> C          0.02650       -1.83130       -0.27030
| 26> O          0.04390       -3.04580       -0.44680
| 27> C          1.04280       -0.80810       -0.05160
| 28> N          2.37350       -0.93840        0.02220
| 29> C          2.88680       -2.29040       -0.13710
| 30> C          3.31410        0.08570        0.23360
| 31> C          2.92730        1.41300        0.42350
| 32> C          3.87120        2.40040        0.62980
| 33> C          5.22180        2.09810        0.65450
| 34> C          5.61550        0.78540        0.46800
| 35> C          4.68050       -0.21160        0.26010
| 36> C         -0.00270        0.21620        0.02390
| 37> O         -0.01980        1.42500        0.19510
| 38> H         -3.45850       -2.63510        0.30220
| 39> H         -3.38190       -2.36850       -1.45870
| 40> H         -1.97410       -2.99420       -0.58860
| 41> H         -5.00960       -1.27710       -0.44140
| 42> H         -6.67990        0.44990       -0.30110
| 43> H         -6.03770        2.81740        0.01150
| 44> H         -3.63630        3.40100        0.17840
| 45> H         -1.93440        1.68880        0.03970
| 46> H          2.05930       -2.98100       -0.28080
| 47> H          3.54010       -2.34620       -1.00910
| 48> H          3.44030       -2.59040        0.75380
| 49> H          1.88820        1.69060        0.41040
| 50> H          3.54070        3.41810        0.77290
| 51> H          5.95640        2.87210        0.81620
| 52> H          6.66400        0.52620        0.48300
| 53> H          5.04340       -1.21540        0.11950
| 54> *
| 55>
| 56>
| 57> $new_job
| 58> ! pbe0 aug-cc-PVTZ RIJCOSX SP
| 59> %maxcore 4000
| 60> %basis
| 61>  AuxJ "aug-cc-PVTZ/JK"
| 62>  AuxC "aug-cc-PVTZ/C"
| 63>  newGTO H "cc-PVTZ" end
| 64>  newAuxJGTO H "cc-PVTZ/JK" end
| 65>  newAuxCGTO H "cc-PVTZ/C" end
| 66> end
| 67> %cpcm
| 68>  SMD true
| 69>  SMDsolvent "n,n-dimethylformamide"
| 70> end
| 71> %pal nprocs 4 end
| 72> %tddft
| 73>  nroots 10
| 74>  maxdim 7
| 75> end
| 76> * xyzfile 0 1
| 77>
| 78>                          ****END OF INPUT****
 Total Charge           Charge          ....    0
 Multiplicity           Mult            ....    1
 Number of Electrons    NEL             ....  154
FINAL SINGLE POINT ENERGY      -954.705830995499
FINAL SINGLE POINT ENERGY      -954.706841865021
FINAL SINGLE POINT ENERGY      -954.706989933372
FINAL SINGLE POINT ENERGY      -954.707056200287
FINAL SINGLE POINT ENERGY      -954.707088125819
FINAL SINGLE POINT ENERGY      -954.707148818360
FINAL SINGLE POINT ENERGY      -954.707331071468
FINAL SINGLE POINT ENERGY      -954.707610997940
FINAL SINGLE POINT ENERGY      -954.708415782227
FINAL SINGLE POINT ENERGY      -954.710281020418
FINAL SINGLE POINT ENERGY      -954.713557359983
FINAL SINGLE POINT ENERGY      -954.714544085570
FINAL SINGLE POINT ENERGY      -954.714745209636
FINAL SINGLE POINT ENERGY      -954.714881147626
FINAL SINGLE POINT ENERGY      -954.715178687287
FINAL SINGLE POINT ENERGY      -954.715211426572
FINAL SINGLE POINT ENERGY      -954.715221666066
FINAL SINGLE POINT ENERGY      -954.715231821389
                    ***********************HURRAY********************
FINAL SINGLE POINT ENERGY      -954.715237545995

CARTESIAN COORDINATES (ANGSTROEM)
---------------------------------
  C     -2.952632   -2.370317   -0.726555
  N     -2.317205   -1.087924   -0.441299
  C     -3.141036    0.032646   -0.180081
  C     -4.369016   -0.142546    0.453702
  C     -5.181267    0.954041    0.698039
  C     -4.783229    2.225774    0.310924
  C     -3.566688    2.392547   -0.337385
  C     -2.748772    1.303877   -0.591578
  C     -0.994568   -1.020098   -0.397092
  C      0.053749   -1.949831   -0.799439
  O      0.090392   -3.051662   -1.338635
  C      1.040109   -1.009859   -0.280103
  N      2.359645   -1.063213   -0.173841
  C      3.038139   -2.336116   -0.396031
  C      3.137251    0.063146    0.187104
  C      2.777295    1.335909   -0.249039
  C      3.554616    2.428259    0.099722
  C      4.699878    2.264347    0.867472
  C      5.066316    0.992103    1.282782
  C      4.293129   -0.108241    0.945337
  C     -0.010414   -0.089220    0.163525
  O     -0.050288    0.955289    0.793679
  H     -3.331935   -2.825226    0.190567
  H     -3.777410   -2.223371   -1.423167
  H     -2.212055   -3.034693   -1.166256
  H     -4.687601   -1.127983    0.767547
  H     -6.131197    0.808484    1.198966
  H     -5.420826    3.080181    0.503917
  H     -3.253548    3.378197   -0.661303
  H     -1.814544    1.437689   -1.119769
  H      2.357669   -3.006346   -0.916481
  H      3.931136   -2.173811   -0.998901
  H      3.322810   -2.792654    0.553870
  H      1.901940    1.468732   -0.869915
  H      3.267756    3.414748   -0.245394
  H      5.306891    3.121814    1.132269
  H      5.960022    0.848955    1.878815
  H      4.585389   -1.093728    1.283628

 Multiplicity           Mult            ....    1
 Number of Electrons    NEL             ....  154
 Basis Dimension        Dim             .... 1236

ORBITAL ENERGIES
----------------

  NO   OCC          E(Eh)            E(eV)
   0   2.0000     -19.177906      -521.8574
   1   2.0000     -19.177019      -521.8332
   2   2.0000     -14.455680      -393.3590
   3   2.0000     -14.455407      -393.3516
   4   2.0000     -10.308067      -280.4968
   5   2.0000     -10.306418      -280.4519
   6   2.0000     -10.290181      -280.0101
   7   2.0000     -10.290152      -280.0093
   8   2.0000     -10.277896      -279.6758
   9   2.0000     -10.277809      -279.6734
  10   2.0000     -10.250464      -278.9293
  11   2.0000     -10.250408      -278.9278
  12   2.0000     -10.232699      -278.4459
  13   2.0000     -10.232692      -278.4457
  14   2.0000     -10.232398      -278.4377
  15   2.0000     -10.232347      -278.4363
  16   2.0000     -10.231349      -278.4092
  17   2.0000     -10.231319      -278.4084
  18   2.0000     -10.230860      -278.3958
  19   2.0000     -10.230809      -278.3945
  20   2.0000     -10.227758      -278.3114
  21   2.0000     -10.227709      -278.3101
  22   2.0000      -1.064459       -28.9654
  23   2.0000      -1.048937       -28.5430
  24   2.0000      -1.019381       -27.7388
  25   2.0000      -1.015393       -27.6303
  26   2.0000      -0.901054       -24.5189
  27   2.0000      -0.887352       -24.1461
  28   2.0000      -0.877197       -23.8698
  29   2.0000      -0.784201       -21.3392
  30   2.0000      -0.781694       -21.2710
  31   2.0000      -0.781267       -21.2594
  32   2.0000      -0.777147       -21.1472
  33   2.0000      -0.748416       -20.3654
  34   2.0000      -0.728058       -19.8115
  35   2.0000      -0.675660       -18.3856
  36   2.0000      -0.655626       -17.8405
  37   2.0000      -0.629788       -17.1374
  38   2.0000      -0.629203       -17.1215
  39   2.0000      -0.597572       -16.2608
  40   2.0000      -0.589910       -16.0523
  41   2.0000      -0.572608       -15.5815
  42   2.0000      -0.552954       -15.0467
  43   2.0000      -0.524751       -14.2792
  44   2.0000      -0.511301       -13.9132
  45   2.0000      -0.500946       -13.6314
  46   2.0000      -0.493952       -13.4411
  47   2.0000      -0.489693       -13.3252
  48   2.0000      -0.485585       -13.2134
  49   2.0000      -0.467634       -12.7250
  50   2.0000      -0.466358       -12.6902
  51   2.0000      -0.462003       -12.5717
  52   2.0000      -0.457857       -12.4589
  53   2.0000      -0.448408       -12.2018
  54   2.0000      -0.444319       -12.0905
  55   2.0000      -0.438272       -11.9260
  56   2.0000      -0.435901       -11.8615
  57   2.0000      -0.433347       -11.7920
  58   2.0000      -0.414494       -11.2790
  59   2.0000      -0.412000       -11.2111
  60   2.0000      -0.406733       -11.0678
  61   2.0000      -0.394701       -10.7403
  62   2.0000      -0.394130       -10.7248
  63   2.0000      -0.382674       -10.4131
  64   2.0000      -0.373257       -10.1569
  65   2.0000      -0.371581       -10.1112
  66   2.0000      -0.360636        -9.8134
  67   2.0000      -0.360549        -9.8110
  68   2.0000      -0.342505        -9.3200
  69   2.0000      -0.331947        -9.0327
  70   2.0000      -0.291307        -7.9269
  71   2.0000      -0.275486        -7.4964
  72   2.0000      -0.272162        -7.4059
  73   2.0000      -0.272060        -7.4031
  74   2.0000      -0.265153        -7.2152
  75   2.0000      -0.246681        -6.7125
  76   2.0000      -0.205068        -5.5802
  77   0.0000      -0.059587        -1.6214
  78   0.0000      -0.014055        -0.3825
  79   0.0000      -0.012282        -0.3342
  80   0.0000      -0.006787        -0.1847
  81   0.0000      -0.005139        -0.1398

MULLIKEN ATOMIC CHARGES
-----------------------
   0 C :   -0.832702
   1 N :    0.307875
   2 C :    1.045218
   3 C :   -0.644423
   4 C :   -0.295725
   5 C :   -0.374471
   6 C :   -0.474902
   7 C :   -0.375715
   8 C :    0.104217
   9 C :    0.855246
  10 O :   -1.115743
  11 C :    0.083962
  12 N :    0.324032
  13 C :   -0.830108
  14 C :    1.005472
  15 C :   -0.380082
  16 C :   -0.474471
  17 C :   -0.347381
  18 C :   -0.305686
  19 C :   -0.638011
  20 C :    0.815154
  21 O :   -1.041958
  22 H :    0.195056
  23 H :    0.188624
  24 H :    0.260723
  25 H :    0.193192
  26 H :    0.243870
  27 H :    0.251556
  28 H :    0.242149
  29 H :    0.221699
  30 H :    0.262282
  31 H :    0.187789
  32 H :    0.194626
  33 H :    0.211737
  34 H :    0.245019
  35 H :    0.249688
  36 H :    0.250920
  37 H :    0.191270
Sum of atomic charges:    0.0000000

LOEWDIN ATOMIC CHARGES
----------------------
   0 C :    0.035161
   1 N :    0.038002
   2 C :   -0.446555
   3 C :   -0.056655
   4 C :   -0.132176
   5 C :   -0.146608
   6 C :   -0.125284
   7 C :   -0.053105
   8 C :   -0.250176
   9 C :   -0.634528
  10 O :    0.366758
  11 C :   -0.250421
  12 N :    0.038567
  13 C :    0.034896
  14 C :   -0.445385
  15 C :   -0.053764
  16 C :   -0.125355
  17 C :   -0.146751
  18 C :   -0.132252
  19 C :   -0.057344
  20 C :   -0.611984
  21 O :    0.417184
  22 H :    0.137795
  23 H :    0.142903
  24 H :    0.153692
  25 H :    0.199553
  26 H :    0.174999
  27 H :    0.171714
  28 H :    0.175611
  29 H :    0.212522
  30 H :    0.153647
  31 H :    0.143092
  32 H :    0.137848
  33 H :    0.212554
  34 H :    0.175632
  35 H :    0.171721
  36 H :    0.174965
  37 H :    0.199527

  Mayer bond orders larger than 0.100000
B(  0-C ,  1-N ) :   1.0521 B(  0-C , 22-H ) :   0.9733 B(  0-C , 23-H ) :   0.9829
B(  0-C , 24-H ) :   0.9143 B(  1-N ,  2-C ) :   0.5129 B(  1-N ,  3-C ) :  -0.1244
B(  1-N ,  7-C ) :  -0.1064 B(  1-N ,  8-C ) :   0.8180 B(  1-N , 11-C ) :   0.1652
B(  1-N , 20-C ) :  -0.1731 B(  2-C ,  3-C ) :   0.8420 B(  2-C ,  4-C ) :  -0.1482
B(  2-C ,  5-C ) :  -0.1415 B(  2-C ,  6-C ) :  -0.1327 B(  2-C ,  7-C ) :   0.9052
B(  2-C ,  8-C ) :  -0.1963 B(  2-C ,  9-C ) :   0.1047 B(  3-C ,  4-C ) :   1.2957
B(  3-C ,  5-C ) :   0.1109 B(  3-C ,  6-C ) :   0.1383 B(  3-C , 25-H ) :   0.9650
B(  4-C ,  5-C ) :   1.2862 B(  4-C , 26-H ) :   0.9242 B(  5-C ,  6-C ) :   1.3182
B(  5-C , 27-H ) :   0.9001 B(  6-C ,  7-C ) :   1.1847 B(  6-C , 28-H ) :   0.9389
B(  7-C , 29-H ) :   0.9418 B(  8-C ,  9-C ) :   0.7831 B(  8-C , 10-O ) :   0.4451
B(  8-C , 11-C ) :   0.2273 B(  8-C , 12-N ) :   0.1711 B(  8-C , 20-C ) :   0.8608
B(  8-C , 21-O ) :   0.1581 B(  9-C , 11-C ) :   0.7612 B(  9-C , 14-C ) :   0.1142
B(  9-C , 20-C ) :  -0.2448 B( 10-O , 11-C ) :   0.4405 B( 10-O , 20-C ) :   0.1244
B( 11-C , 12-N ) :   0.8120 B( 11-C , 14-C ) :  -0.2017 B( 11-C , 20-C ) :   0.8577
B( 11-C , 21-O ) :   0.1489 B( 12-N , 13-C ) :   1.0532 B( 12-N , 14-C ) :   0.5183
B( 12-N , 15-C ) :  -0.1145 B( 12-N , 19-C ) :  -0.1230 B( 12-N , 20-C ) :  -0.1833
B( 13-C , 30-H ) :   0.9136 B( 13-C , 31-H ) :   0.9826 B( 13-C , 32-H ) :   0.9736
B( 14-C , 15-C ) :   0.9465 B( 14-C , 16-C ) :  -0.1242 B( 14-C , 17-C ) :  -0.1278
B( 14-C , 18-C ) :  -0.1482 B( 14-C , 19-C ) :   0.8579 B( 15-C , 16-C ) :   1.1903
B( 15-C , 33-H ) :   0.9499 B( 16-C , 17-C ) :   1.3079 B( 16-C , 19-C ) :   0.1315
B( 16-C , 34-H ) :   0.9329 B( 17-C , 18-C ) :   1.2834 B( 17-C , 35-H ) :   0.9022
B( 18-C , 19-C ) :   1.2956 B( 18-C , 36-H ) :   0.9130 B( 19-C , 37-H ) :   0.9700
B( 20-C , 21-O ) :   0.4669

-----------------------------------------------------------------------------
         ABSORPTION SPECTRUM VIA TRANSITION ELECTRIC DIPOLE MOMENTS
-----------------------------------------------------------------------------
State   Energy    Wavelength  fosc         T2        TX        TY        TZ
        (cm-1)      (nm)                 (au**2)    (au)      (au)      (au)
-----------------------------------------------------------------------------
   1   28138.2    355.4   1.197998449  14.01637  -3.73749  -0.01937  -0.21711
   2   30887.7    323.8   0.001592711   0.01698   0.02859   0.12567   0.01910
   3   35456.1    282.0   0.013796376   0.12810  -0.01213  -0.23186   0.27238
   4   35848.8    278.9   0.002726163   0.02504   0.15784  -0.00709   0.00850
   5   37398.0    267.4   0.027859664   0.24525   0.00545  -0.44766  -0.21171
   6   38250.3    261.4   0.000465741   0.00401  -0.02703  -0.05507   0.01568
   7   38331.9    260.9   0.027843517   0.23913  -0.00276   0.48053  -0.09066
   8   38735.5    258.2   0.017623827   0.14978  -0.00434  -0.37682   0.08818
   9   40110.1    249.3   0.063317881   0.51969  -0.67613  -0.21696  -0.12440
  10   40191.7    248.8   0.298702210   2.44668  -0.14393   1.45755   0.54911

FINAL SINGLE POINT ENERGY      -954.587030456077

DIPOLE MOMENT
-------------
                                X             Y             Z
Electronic contribution:      0.00617       0.15754      -0.38662
Nuclear contribution   :     -0.00494      -0.47316       0.32701
                        -----------------------------------------
Total Dipole Moment    :      0.00123      -0.31562      -0.05961
                        -----------------------------------------
Magnitude (a.u.)       :      0.32120
Magnitude (Debye)      :      0.81643

Rotational constants in cm-1:     0.017850     0.005450     0.004341
Rotational constants in MHz :   535.126310   163.384440   130.145349

                             ****ORCA TERMINATED NORMALLY****
TOTAL RUN TIME: 0 days 15 hours 26 minutes 29 seconds 648 msec
