                         Program Version 5.0.2 -  RELEASE  -
|  1> ! wb97x-d3 aug-cc-PVTZ RIJCOSX Opt
|  2> %maxcore 4000
|  3> %basis
|  4>  AuxJ "aug-cc-PVTZ/JK"
|  5>  AuxC "aug-cc-PVTZ/C"
|  6>  newGTO H "cc-PVTZ" end
|  7>  newAuxJGTO H "cc-PVTZ/JK" end
|  8>  newAuxCGTO H "cc-PVTZ/C" end
|  9> end
| 10> %cpcm
| 11>  SMD true
| 12>  SMDsolvent "n,n-dimethylformamide"
| 13> end
| 14> %pal nprocs 4 end
| 15> * xyz 0 1
| 16> C         -2.82150       -2.31600       -0.52420
| 17> N         -2.34630       -0.95930       -0.29970
| 18> C         -3.31610        0.05570       -0.21380
| 19> C         -4.67480       -0.26280       -0.30710
| 20> C         -5.63820        0.72560       -0.22610
| 21> C         -5.28100        2.05040       -0.05140
| 22> C         -3.93830        2.37360        0.04160
| 23> C         -2.96630        1.39530       -0.03870
| 24> C         -1.01900       -0.81700       -0.19380
| 25> C          0.02650       -1.83130       -0.27030
| 26> O          0.04390       -3.04580       -0.44680
| 27> C          1.04280       -0.80810       -0.05160
| 28> N          2.37350       -0.93840        0.02220
| 29> C          2.88680       -2.29040       -0.13710
| 30> C          3.31410        0.08570        0.23360
| 31> C          2.92730        1.41300        0.42350
| 32> C          3.87120        2.40040        0.62980
| 33> C          5.22180        2.09810        0.65450
| 34> C          5.61550        0.78540        0.46800
| 35> C          4.68050       -0.21160        0.26010
| 36> C         -0.00270        0.21620        0.02390
| 37> O         -0.01980        1.42500        0.19510
| 38> H         -3.45850       -2.63510        0.30220
| 39> H         -3.38190       -2.36850       -1.45870
| 40> H         -1.97410       -2.99420       -0.58860
| 41> H         -5.00960       -1.27710       -0.44140
| 42> H         -6.67990        0.44990       -0.30110
| 43> H         -6.03770        2.81740        0.01150
| 44> H         -3.63630        3.40100        0.17840
| 45> H         -1.93440        1.68880        0.03970
| 46> H          2.05930       -2.98100       -0.28080
| 47> H          3.54010       -2.34620       -1.00910
| 48> H          3.44030       -2.59040        0.75380
| 49> H          1.88820        1.69060        0.41040
| 50> H          3.54070        3.41810        0.77290
| 51> H          5.95640        2.87210        0.81620
| 52> H          6.66400        0.52620        0.48300
| 53> H          5.04340       -1.21540        0.11950
| 54> *
| 55>
| 56>
| 57> $new_job
| 58> ! wb97x-d3 aug-cc-PVTZ RIJCOSX SP
| 59> %maxcore 4000
| 60> %basis
| 61>  AuxJ "aug-cc-PVTZ/JK"
| 62>  AuxC "aug-cc-PVTZ/C"
| 63>  newGTO H "cc-PVTZ" end
| 64>  newAuxJGTO H "cc-PVTZ/JK" end
| 65>  newAuxCGTO H "cc-PVTZ/C" end
| 66> end
| 67> %cpcm
| 68>  SMD true
| 69>  SMDsolvent "n,n-dimethylformamide"
| 70> end
| 71> %pal nprocs 4 end
| 72> %tddft
| 73>  nroots 10
| 74>  maxdim 7
| 75> end
| 76> * xyzfile 0 1
| 77>
| 78>                          ****END OF INPUT****
 Total Charge           Charge          ....    0
 Multiplicity           Mult            ....    1
 Number of Electrons    NEL             ....  154
Dispersion correction           -0.015731007
FINAL SINGLE POINT ENERGY      -955.533369521669
Dispersion correction            ... done
Dispersion correction           -0.015720872
FINAL SINGLE POINT ENERGY      -955.534620989782
Dispersion correction            ... done
Dispersion correction           -0.015685705
FINAL SINGLE POINT ENERGY      -955.534848971355
Dispersion correction            ... done
FINAL SINGLE POINT ENERGY      -955.534976539312
FINAL SINGLE POINT ENERGY      -955.535036220081
FINAL SINGLE POINT ENERGY      -955.535186908098
FINAL SINGLE POINT ENERGY      -955.535671073812
FINAL SINGLE POINT ENERGY      -955.536934067546
FINAL SINGLE POINT ENERGY      -955.538546874525
FINAL SINGLE POINT ENERGY      -955.538996909682
FINAL SINGLE POINT ENERGY      -955.545238630496
FINAL SINGLE POINT ENERGY      -955.545459770012
FINAL SINGLE POINT ENERGY      -955.545621139565
FINAL SINGLE POINT ENERGY      -955.545728941931
FINAL SINGLE POINT ENERGY      -955.545806880777
FINAL SINGLE POINT ENERGY      -955.545831135491
Dispersion correction           -0.016900042
FINAL SINGLE POINT ENERGY      -955.545832583172
Dispersion correction            ... done
Dispersion correction           -0.016900882
FINAL SINGLE POINT ENERGY      -955.545827692497
Dispersion correction            ... done
                    ***********************HURRAY********************
Dispersion correction           -0.016900713
FINAL SINGLE POINT ENERGY      -955.545818742515

CARTESIAN COORDINATES (ANGSTROEM)
---------------------------------
  C     -3.000581   -2.418753   -0.376554
  N     -2.315419   -1.127199   -0.322261
  C     -3.109450    0.056000   -0.340764
  C     -4.276498    0.114735    0.411857
  C     -5.065232    1.253760    0.369707
  C     -4.696087    2.334134   -0.418654
  C     -3.534811    2.265570   -1.175045
  C     -2.745847    1.127011   -1.147688
  C     -0.995018   -1.087362   -0.224627
  C      0.029328   -2.115609   -0.310517
  O      0.046418   -3.327733   -0.510918
  C      1.029807   -1.089527   -0.056277
  N      2.347206   -1.117913    0.026049
  C      3.077732   -2.355007   -0.247791
  C      3.107648    0.045609    0.356341
  C      2.794095    0.780791    1.491344
  C      3.550449    1.896454    1.814594
  C      4.623348    2.271110    1.018410
  C      4.940793    1.522225   -0.105703
  C      4.185619    0.409395   -0.440442
  C      0.003426   -0.051642    0.036007
  O     -0.008630    1.152789    0.244697
  H     -3.458762   -2.653529    0.584397
  H     -3.770792   -2.386893   -1.145213
  H     -2.274822   -3.190589   -0.615327
  H     -4.565879   -0.719127    1.037349
  H     -5.971346    1.295200    0.960560
  H     -5.312876    3.223193   -0.448142
  H     -3.245056    3.097970   -1.803770
  H     -1.854068    1.066496   -1.755885
  H      2.372299   -3.179894   -0.285432
  H      3.596133   -2.290812   -1.204185
  H      3.804723   -2.528299    0.544170
  H      1.966837    0.478346    2.118906
  H      3.303076    2.470933    2.698189
  H      5.214801    3.140321    1.276145
  H      5.777554    1.805351   -0.731359
  H      4.429786   -0.167605   -1.322570

 Multiplicity           Mult            ....    1
 Number of Electrons    NEL             ....  154
 Basis Dimension        Dim             .... 1236

ORBITAL ENERGIES
----------------

  NO   OCC          E(Eh)            E(eV)
   0   2.0000     -19.199100      -522.4341
   1   2.0000     -19.197526      -522.3912
   2   2.0000     -14.487489      -394.2246
   3   2.0000     -14.486128      -394.1876
   4   2.0000     -10.364056      -282.0203
   5   2.0000     -10.362407      -281.9754
   6   2.0000     -10.348450      -281.5956
   7   2.0000     -10.347291      -281.5641
   8   2.0000     -10.329881      -281.0903
   9   2.0000     -10.329583      -281.0822
  10   2.0000     -10.304531      -280.4005
  11   2.0000     -10.303941      -280.3845
  12   2.0000     -10.286325      -279.9051
  13   2.0000     -10.286047      -279.8976
  14   2.0000     -10.285434      -279.8809
  15   2.0000     -10.285085      -279.8714
  16   2.0000     -10.284704      -279.8610
  17   2.0000     -10.284224      -279.8480
  18   2.0000     -10.284212      -279.8476
  19   2.0000     -10.283703      -279.8338
  20   2.0000     -10.282172      -279.7921
  21   2.0000     -10.281101      -279.7630
  22   2.0000      -1.150552       -31.3081
  23   2.0000      -1.132318       -30.8119
  24   2.0000      -1.105457       -30.0810
  25   2.0000      -1.100284       -29.9403
  26   2.0000      -0.995131       -27.0789
  27   2.0000      -0.980658       -26.6850
  28   2.0000      -0.970530       -26.4095
  29   2.0000      -0.875680       -23.8285
  30   2.0000      -0.873121       -23.7588
  31   2.0000      -0.873017       -23.7560
  32   2.0000      -0.869775       -23.6678
  33   2.0000      -0.840676       -22.8760
  34   2.0000      -0.818669       -22.2771
  35   2.0000      -0.762675       -20.7534
  36   2.0000      -0.742116       -20.1940
  37   2.0000      -0.722523       -19.6608
  38   2.0000      -0.720685       -19.6108
  39   2.0000      -0.686807       -18.6890
  40   2.0000      -0.679165       -18.4810
  41   2.0000      -0.659812       -17.9544
  42   2.0000      -0.639834       -17.4108
  43   2.0000      -0.610275       -16.6064
  44   2.0000      -0.600899       -16.3513
  45   2.0000      -0.590648       -16.0724
  46   2.0000      -0.580123       -15.7859
  47   2.0000      -0.570798       -15.5322
  48   2.0000      -0.569928       -15.5085
  49   2.0000      -0.557709       -15.1760
  50   2.0000      -0.548838       -14.9347
  51   2.0000      -0.543278       -14.7834
  52   2.0000      -0.540639       -14.7115
  53   2.0000      -0.535687       -14.5768
  54   2.0000      -0.528504       -14.3813
  55   2.0000      -0.521455       -14.1895
  56   2.0000      -0.520941       -14.1755
  57   2.0000      -0.517288       -14.0761
  58   2.0000      -0.499920       -13.6035
  59   2.0000      -0.498048       -13.5526
  60   2.0000      -0.491035       -13.3617
  61   2.0000      -0.480471       -13.0743
  62   2.0000      -0.480186       -13.0665
  63   2.0000      -0.465116       -12.6565
  64   2.0000      -0.453717       -12.3463
  65   2.0000      -0.453108       -12.3297
  66   2.0000      -0.446296       -12.1443
  67   2.0000      -0.443480       -12.0677
  68   2.0000      -0.419503       -11.4153
  69   2.0000      -0.407861       -11.0985
  70   2.0000      -0.371827       -10.1179
  71   2.0000      -0.348927        -9.4948
  72   2.0000      -0.347967        -9.4687
  73   2.0000      -0.343229        -9.3397
  74   2.0000      -0.340392        -9.2625
  75   2.0000      -0.325669        -8.8619
  76   2.0000      -0.265810        -7.2331
  77   0.0000       0.014278         0.3885
  78   0.0000       0.043552         1.1851
  79   0.0000       0.051194         1.3931
  80   0.0000       0.053818         1.4645
  81   0.0000       0.056852         1.5470

MULLIKEN ATOMIC CHARGES
-----------------------
   0 C :   -1.008163
   1 N :    0.414470
   2 C :    1.414290
   3 C :   -0.746149
   4 C :   -0.272525
   5 C :   -0.337144
   6 C :   -0.513781
   7 C :   -0.621566
   8 C :    0.105400
   9 C :    0.964263
  10 O :   -1.257299
  11 C :    0.154736
  12 N :    0.327078
  13 C :   -0.987941
  14 C :    1.516745
  15 C :   -0.701998
  16 C :   -0.494761
  17 C :   -0.301790
  18 C :   -0.276594
  19 C :   -0.745920
  20 C :    0.873994
  21 O :   -1.084434
  22 H :    0.207673
  23 H :    0.185501
  24 H :    0.288224
  25 H :    0.177521
  26 H :    0.239889
  27 H :    0.242569
  28 H :    0.226828
  29 H :    0.225205
  30 H :    0.286681
  31 H :    0.201537
  32 H :    0.187018
  33 H :    0.221051
  34 H :    0.227027
  35 H :    0.243081
  36 H :    0.241008
  37 H :    0.178276
Sum of atomic charges:    0.0000000

LOEWDIN ATOMIC CHARGES
----------------------
   0 C :    0.040903
   1 N :    0.035409
   2 C :   -0.452137
   3 C :   -0.053144
   4 C :   -0.129211
   5 C :   -0.144318
   6 C :   -0.123133
   7 C :   -0.053870
   8 C :   -0.246275
   9 C :   -0.627722
  10 O :    0.356102
  11 C :   -0.244810
  12 N :    0.034857
  13 C :    0.047231
  14 C :   -0.456438
  15 C :   -0.051059
  16 C :   -0.121560
  17 C :   -0.142880
  18 C :   -0.127174
  19 C :   -0.049139
  20 C :   -0.595430
  21 O :    0.408135
  22 H :    0.134082
  23 H :    0.139227
  24 H :    0.149950
  25 H :    0.198194
  26 H :    0.173267
  27 H :    0.170774
  28 H :    0.173958
  29 H :    0.209258
  30 H :    0.149721
  31 H :    0.134826
  32 H :    0.137917
  33 H :    0.207929
  34 H :    0.173874
  35 H :    0.171265
  36 H :    0.173387
  37 H :    0.198036

  Mayer bond orders larger than 0.100000
B(  0-C ,  1-N ) :   0.9603 B(  0-C ,  8-C ) :  -0.3328 B(  0-C , 22-H ) :   0.9892
B(  0-C , 23-H ) :   1.0048 B(  0-C , 24-H ) :   0.8940 B(  1-N ,  2-C ) :   0.3842
B(  1-N ,  3-C ) :  -0.1302 B(  1-N ,  7-C ) :  -0.1267 B(  1-N ,  8-C ) :   0.7392
B(  1-N , 11-C ) :   0.1523 B(  1-N , 20-C ) :  -0.2177 B(  2-C ,  3-C ) :   0.5272
B(  2-C ,  4-C ) :  -0.1340 B(  2-C ,  5-C ) :  -0.1418 B(  2-C ,  6-C ) :  -0.1871
B(  2-C ,  7-C ) :   0.5111 B(  2-C ,  8-C ) :  -0.1284 B(  3-C ,  4-C ) :   1.1865
B(  3-C ,  6-C ) :   0.1334 B(  3-C ,  7-C ) :   0.2199 B(  3-C , 25-H ) :   1.0602
B(  4-C ,  5-C ) :   1.1554 B(  4-C , 26-H ) :   0.9630 B(  5-C ,  6-C ) :   1.2528
B(  5-C , 27-H ) :   0.9451 B(  6-C ,  7-C ) :   1.1024 B(  6-C , 28-H ) :   1.0063
B(  7-C , 29-H ) :   1.0183 B(  8-C ,  9-C ) :   0.7553 B(  8-C , 10-O ) :   0.4517
B(  8-C , 11-C ) :   0.3934 B(  8-C , 12-N ) :   0.1504 B(  8-C , 20-C ) :   0.7143
B(  8-C , 21-O ) :   0.1232 B(  9-C , 10-O ) :  -0.1143 B(  9-C , 11-C ) :   0.6794
B(  9-C , 14-C ) :   0.1128 B(  9-C , 20-C ) :  -0.3738 B( 10-O , 11-C ) :   0.4194
B( 11-C , 12-N ) :   0.8905 B( 11-C , 13-C ) :  -0.3699 B( 11-C , 14-C ) :  -0.1697
B( 11-C , 20-C ) :   0.7567 B( 11-C , 21-O ) :   0.1483 B( 12-N , 13-C ) :   0.9588
B( 12-N , 14-C ) :   0.3380 B( 12-N , 20-C ) :  -0.2641 B( 13-C , 30-H ) :   0.8996
B( 13-C , 31-H ) :   0.9908 B( 13-C , 32-H ) :   1.0009 B( 14-C , 15-C ) :   0.3009
B( 14-C , 16-C ) :  -0.2014 B( 14-C , 17-C ) :  -0.1640 B( 14-C , 19-C ) :   0.4928
B( 14-C , 33-H ) :  -0.1105 B( 15-C , 16-C ) :   1.1136 B( 15-C , 19-C ) :   0.2567
B( 15-C , 33-H ) :   1.0302 B( 16-C , 17-C ) :   1.2608 B( 16-C , 19-C ) :   0.1389
B( 16-C , 34-H ) :   1.0000 B( 17-C , 18-C ) :   1.1379 B( 17-C , 35-H ) :   0.9411
B( 18-C , 19-C ) :   1.1689 B( 18-C , 36-H ) :   0.9632 B( 19-C , 37-H ) :   1.0701
B( 20-C , 21-O ) :   0.4287

-----------------------------------------------------------------------------
         ABSORPTION SPECTRUM VIA TRANSITION ELECTRIC DIPOLE MOMENTS
-----------------------------------------------------------------------------
State   Energy    Wavelength  fosc         T2        TX        TY        TZ
        (cm-1)      (nm)                 (au**2)    (au)      (au)      (au)
-----------------------------------------------------------------------------
   1   30466.0    328.2   0.933986196  10.09254   3.16144  -0.07640   0.30334
   2   35883.3    278.7   0.107494613   0.98621   0.99092  -0.01214   0.06428
   3   39417.5    253.7   0.050905526   0.42516   0.01849  -0.64271  -0.10834
   4   40784.7    245.2   0.017836698   0.14398   0.03134  -0.08772   0.36783
   5   41942.7    238.4   0.010062724   0.07898  -0.15675   0.22768   0.05073
   6   42360.0    236.1   0.014735545   0.11452   0.17551   0.28685  -0.03783
   7   42786.2    233.7   0.199115799   1.53207  -0.03430   1.21694   0.22347
   8   44032.8    227.1   0.261935797   1.95837   0.02459  -1.38555  -0.19500
   9   44803.6    223.2   0.005849815   0.04298  -0.04521   0.14314  -0.14301
  10   46313.5    215.9   0.006377087   0.04533  -0.06964   0.16580  -0.11397

Dispersion correction           -0.016900713
FINAL SINGLE POINT ENERGY      -955.407005409730

DIPOLE MOMENT
-------------
                                X             Y             Z
Electronic contribution:      0.11760       0.02319       0.04480
Nuclear contribution   :      0.00723      -0.17810      -0.05890
                        -----------------------------------------
Total Dipole Moment    :      0.12483      -0.15491      -0.01410
                        -----------------------------------------
Magnitude (a.u.)       :      0.19944
Magnitude (Debye)      :      0.50695

Rotational constants in cm-1:     0.017229     0.005477     0.004418
Rotational constants in MHz :   516.524112   164.201706   132.439669

                             ****ORCA TERMINATED NORMALLY****
TOTAL RUN TIME: 1 days 16 hours 59 minutes 21 seconds 218 msec
