                         Program Version 5.0.2 -  RELEASE  -
|  1> ! x3lyp aug-cc-PVTZ RIJCOSX Opt
|  2> %maxcore 4000
|  3> %basis
|  4>  AuxJ "aug-cc-PVTZ/JK"
|  5>  AuxC "aug-cc-PVTZ/C"
|  6>  newGTO H "cc-PVTZ" end
|  7>  newAuxJGTO H "cc-PVTZ/JK" end
|  8>  newAuxCGTO H "cc-PVTZ/C" end
|  9> end
| 10> %cpcm
| 11>  SMD true
| 12>  SMDsolvent "n,n-dimethylformamide"
| 13> end
| 14> %pal nprocs 4 end
| 15> * xyz 0 1
| 16> C         -2.82150       -2.31600       -0.52420
| 17> N         -2.34630       -0.95930       -0.29970
| 18> C         -3.31610        0.05570       -0.21380
| 19> C         -4.67480       -0.26280       -0.30710
| 20> C         -5.63820        0.72560       -0.22610
| 21> C         -5.28100        2.05040       -0.05140
| 22> C         -3.93830        2.37360        0.04160
| 23> C         -2.96630        1.39530       -0.03870
| 24> C         -1.01900       -0.81700       -0.19380
| 25> C          0.02650       -1.83130       -0.27030
| 26> O          0.04390       -3.04580       -0.44680
| 27> C          1.04280       -0.80810       -0.05160
| 28> N          2.37350       -0.93840        0.02220
| 29> C          2.88680       -2.29040       -0.13710
| 30> C          3.31410        0.08570        0.23360
| 31> C          2.92730        1.41300        0.42350
| 32> C          3.87120        2.40040        0.62980
| 33> C          5.22180        2.09810        0.65450
| 34> C          5.61550        0.78540        0.46800
| 35> C          4.68050       -0.21160        0.26010
| 36> C         -0.00270        0.21620        0.02390
| 37> O         -0.01980        1.42500        0.19510
| 38> H         -3.45850       -2.63510        0.30220
| 39> H         -3.38190       -2.36850       -1.45870
| 40> H         -1.97410       -2.99420       -0.58860
| 41> H         -5.00960       -1.27710       -0.44140
| 42> H         -6.67990        0.44990       -0.30110
| 43> H         -6.03770        2.81740        0.01150
| 44> H         -3.63630        3.40100        0.17840
| 45> H         -1.93440        1.68880        0.03970
| 46> H          2.05930       -2.98100       -0.28080
| 47> H          3.54010       -2.34620       -1.00910
| 48> H          3.44030       -2.59040        0.75380
| 49> H          1.88820        1.69060        0.41040
| 50> H          3.54070        3.41810        0.77290
| 51> H          5.95640        2.87210        0.81620
| 52> H          6.66400        0.52620        0.48300
| 53> H          5.04340       -1.21540        0.11950
| 54> *
| 55>
| 56>
| 57> $new_job
| 58> ! x3lyp aug-cc-PVTZ RIJCOSX SP
| 59> %maxcore 4000
| 60> %basis
| 61>  AuxJ "aug-cc-PVTZ/JK"
| 62>  AuxC "aug-cc-PVTZ/C"
| 63>  newGTO H "cc-PVTZ" end
| 64>  newAuxJGTO H "cc-PVTZ/JK" end
| 65>  newAuxCGTO H "cc-PVTZ/C" end
| 66> end
| 67> %cpcm
| 68>  SMD true
| 69>  SMDsolvent "n,n-dimethylformamide"
| 70> end
| 71> %pal nprocs 4 end
| 72> %tddft
| 73>  nroots 10
| 74>  maxdim 7
| 75> end
| 76> * xyzfile 0 1
| 77>
| 78>                          ****END OF INPUT****
 Total Charge           Charge          ....    0
 Multiplicity           Mult            ....    1
 Number of Electrons    NEL             ....  154
FINAL SINGLE POINT ENERGY      -955.002723353280
FINAL SINGLE POINT ENERGY      -955.004659770824
FINAL SINGLE POINT ENERGY      -955.004901385932
FINAL SINGLE POINT ENERGY      -955.004938551497
FINAL SINGLE POINT ENERGY      -955.005015703900
FINAL SINGLE POINT ENERGY      -955.005252085191
FINAL SINGLE POINT ENERGY      -955.005543104400
FINAL SINGLE POINT ENERGY      -955.005702985201
FINAL SINGLE POINT ENERGY      -955.006361919048
FINAL SINGLE POINT ENERGY      -955.007546816148
FINAL SINGLE POINT ENERGY      -955.013130662171
FINAL SINGLE POINT ENERGY      -955.013130017275
FINAL SINGLE POINT ENERGY      -955.013128633262
FINAL SINGLE POINT ENERGY      -955.013128736081
FINAL SINGLE POINT ENERGY      -955.013124011274
FINAL SINGLE POINT ENERGY      -955.013106805559
FINAL SINGLE POINT ENERGY      -955.013118018913
FINAL SINGLE POINT ENERGY      -955.013120553067
                    ***********************HURRAY********************
FINAL SINGLE POINT ENERGY      -955.013117938161

CARTESIAN COORDINATES (ANGSTROEM)
---------------------------------
  C     -3.014578   -2.415155   -0.324002
  N     -2.331922   -1.112829   -0.292693
  C     -3.136854    0.065818   -0.326120
  C     -4.304959    0.132857    0.432767
  C     -5.104730    1.266992    0.370574
  C     -4.750492    2.335192   -0.446041
  C     -3.590224    2.259458   -1.209020
  C     -2.787652    1.127838   -1.158662
  C     -1.005660   -1.069966   -0.222508
  C      0.024831   -2.098647   -0.329275
  O      0.039505   -3.313618   -0.536419
  C      1.033864   -1.069053   -0.089213
  N      2.357882   -1.098429   -0.031264
  C      3.079034   -2.342039   -0.340690
  C      3.134358    0.044952    0.339339
  C      2.813375    0.765013    1.487821
  C      3.589815    1.855576    1.857252
  C      4.691590    2.226309    1.093968
  C      5.015694    1.496598   -0.044502
  C      4.242852    0.406656   -0.424144
  C      0.001529   -0.029900    0.020993
  O     -0.010101    1.178179    0.228899
  H     -3.475314   -2.630124    0.640252
  H     -3.784081   -2.401723   -1.093738
  H     -2.285267   -3.187850   -0.545014
  H     -4.586065   -0.687963    1.076914
  H     -6.006219    1.314176    0.966907
  H     -5.376891    3.215828   -0.493388
  H     -3.311783    3.078806   -1.858544
  H     -1.899886    1.063352   -1.769854
  H      2.360008   -3.147456   -0.449603
  H      3.638341   -2.236605   -1.269438
  H      3.770930   -2.570896    0.468736
  H      1.968420    0.467952    2.091433
  H      3.336622    2.409967    2.751242
  H      5.296736    3.073582    1.387462
  H      5.870705    1.776620   -0.645370
  H      4.496487   -0.149567   -1.315459

 Multiplicity           Mult            ....    1
 Number of Electrons    NEL             ....  154
 Basis Dimension        Dim             .... 1236

ORBITAL ENERGIES
----------------

  NO   OCC          E(Eh)            E(eV)
   0   2.0000     -19.125187      -520.4228
   1   2.0000     -19.123291      -520.3712
   2   2.0000     -14.406938      -392.0327
   3   2.0000     -14.406049      -392.0085
   4   2.0000     -10.275769      -279.6179
   5   2.0000     -10.274486      -279.5830
   6   2.0000     -10.258457      -279.1468
   7   2.0000     -10.257532      -279.1216
   8   2.0000     -10.244882      -278.7774
   9   2.0000     -10.244865      -278.7769
  10   2.0000     -10.220651      -278.1180
  11   2.0000     -10.220293      -278.1083
  12   2.0000     -10.201826      -277.6058
  13   2.0000     -10.201422      -277.5948
  14   2.0000     -10.201075      -277.5854
  15   2.0000     -10.200609      -277.5727
  16   2.0000     -10.200143      -277.5600
  17   2.0000     -10.199676      -277.5473
  18   2.0000     -10.199601      -277.5453
  19   2.0000     -10.199110      -277.5319
  20   2.0000     -10.197563      -277.4898
  21   2.0000     -10.196670      -277.4655
  22   2.0000      -1.035607       -28.1803
  23   2.0000      -1.020916       -27.7805
  24   2.0000      -0.989272       -26.9194
  25   2.0000      -0.985886       -26.8273
  26   2.0000      -0.876536       -23.8518
  27   2.0000      -0.864499       -23.5242
  28   2.0000      -0.853589       -23.2273
  29   2.0000      -0.763017       -20.7627
  30   2.0000      -0.760311       -20.6891
  31   2.0000      -0.760087       -20.6830
  32   2.0000      -0.757187       -20.6041
  33   2.0000      -0.728723       -19.8296
  34   2.0000      -0.708425       -19.2772
  35   2.0000      -0.655261       -17.8306
  36   2.0000      -0.635952       -17.3051
  37   2.0000      -0.615825       -16.7575
  38   2.0000      -0.614431       -16.7195
  39   2.0000      -0.579900       -15.7799
  40   2.0000      -0.574967       -15.6457
  41   2.0000      -0.556790       -15.1510
  42   2.0000      -0.535505       -14.5718
  43   2.0000      -0.509315       -13.8592
  44   2.0000      -0.498602       -13.5676
  45   2.0000      -0.485903       -13.2221
  46   2.0000      -0.480586       -13.0774
  47   2.0000      -0.472513       -12.8577
  48   2.0000      -0.470224       -12.7955
  49   2.0000      -0.457544       -12.4504
  50   2.0000      -0.449137       -12.2216
  51   2.0000      -0.446416       -12.1476
  52   2.0000      -0.442302       -12.0356
  53   2.0000      -0.438955       -11.9446
  54   2.0000      -0.431470       -11.7409
  55   2.0000      -0.425955       -11.5908
  56   2.0000      -0.425662       -11.5828
  57   2.0000      -0.418828       -11.3969
  58   2.0000      -0.404376       -11.0036
  59   2.0000      -0.403237       -10.9726
  60   2.0000      -0.394863       -10.7448
  61   2.0000      -0.380260       -10.3474
  62   2.0000      -0.379643       -10.3306
  63   2.0000      -0.367450        -9.9988
  64   2.0000      -0.364016        -9.9054
  65   2.0000      -0.362437        -9.8624
  66   2.0000      -0.355112        -9.6631
  67   2.0000      -0.352933        -9.6038
  68   2.0000      -0.328015        -8.9257
  69   2.0000      -0.316842        -8.6217
  70   2.0000      -0.279172        -7.5967
  71   2.0000      -0.263748        -7.1769
  72   2.0000      -0.263051        -7.1580
  73   2.0000      -0.257583        -7.0092
  74   2.0000      -0.256729        -6.9859
  75   2.0000      -0.237499        -6.4627
  76   2.0000      -0.193800        -5.2736
  77   0.0000      -0.052816        -1.4372
  78   0.0000      -0.015423        -0.4197
  79   0.0000      -0.013705        -0.3729
  80   0.0000      -0.010473        -0.2850
  81   0.0000      -0.005539        -0.1507

MULLIKEN ATOMIC CHARGES
-----------------------
   0 C :   -0.822148
   1 N :    0.257631
   2 C :    1.172490
   3 C :   -0.569415
   4 C :   -0.232331
   5 C :   -0.313554
   6 C :   -0.493886
   7 C :   -0.403387
   8 C :    0.234087
   9 C :    0.919877
  10 O :   -1.161156
  11 C :    0.261968
  12 N :    0.180842
  13 C :   -0.827215
  14 C :    1.293076
  15 C :   -0.502458
  16 C :   -0.482475
  17 C :   -0.279121
  18 C :   -0.226505
  19 C :   -0.577616
  20 C :    0.721822
  21 O :   -1.061285
  22 H :    0.177131
  23 H :    0.162618
  24 H :    0.236009
  25 H :    0.131130
  26 H :    0.206850
  27 H :    0.204117
  28 H :    0.195888
  29 H :    0.134679
  30 H :    0.240285
  31 H :    0.176451
  32 H :    0.166652
  33 H :    0.137503
  34 H :    0.197302
  35 H :    0.206449
  36 H :    0.209980
  37 H :    0.127717
Sum of atomic charges:    0.0000000

LOEWDIN ATOMIC CHARGES
----------------------
   0 C :    0.040446
   1 N :    0.043737
   2 C :   -0.442967
   3 C :   -0.051492
   4 C :   -0.129584
   5 C :   -0.144036
   6 C :   -0.123242
   7 C :   -0.050882
   8 C :   -0.246187
   9 C :   -0.630176
  10 O :    0.354522
  11 C :   -0.244561
  12 N :    0.043667
  13 C :    0.045792
  14 C :   -0.444983
  15 C :   -0.048956
  16 C :   -0.122029
  17 C :   -0.142709
  18 C :   -0.127955
  19 C :   -0.049253
  20 C :   -0.597721
  21 O :    0.404566
  22 H :    0.133474
  23 H :    0.137757
  24 H :    0.147787
  25 H :    0.194929
  26 H :    0.171733
  27 H :    0.169044
  28 H :    0.172352
  29 H :    0.205620
  30 H :    0.147553
  31 H :    0.134304
  32 H :    0.136184
  33 H :    0.204814
  34 H :    0.172366
  35 H :    0.169487
  36 H :    0.171893
  37 H :    0.194708

  Mayer bond orders larger than 0.100000
B(  0-C ,  1-N ) :   0.9818 B(  0-C ,  8-C ) :  -0.2018 B(  0-C , 22-H ) :   0.9891
B(  0-C , 23-H ) :   1.0024 B(  0-C , 24-H ) :   0.9385 B(  1-N ,  2-C ) :   0.4831
B(  1-N ,  8-C ) :   0.8905 B(  1-N , 11-C ) :   0.1613 B(  1-N , 20-C ) :  -0.2236
B(  2-C ,  3-C ) :   0.7172 B(  2-C ,  4-C ) :  -0.1172 B(  2-C ,  5-C ) :  -0.1477
B(  2-C ,  6-C ) :  -0.1648 B(  2-C ,  7-C ) :   0.7921 B(  2-C ,  8-C ) :  -0.2403
B(  2-C , 20-C ) :   0.1725 B(  3-C ,  4-C ) :   1.2090 B(  3-C ,  6-C ) :   0.1132
B(  3-C ,  7-C ) :   0.1181 B(  3-C , 25-H ) :   1.0490 B(  4-C ,  5-C ) :   1.2128
B(  4-C , 26-H ) :   0.9558 B(  5-C ,  6-C ) :   1.2907 B(  5-C , 27-H ) :   0.9413
B(  6-C ,  7-C ) :   1.1255 B(  6-C , 28-H ) :   0.9929 B(  7-C , 29-H ) :   1.0590
B(  8-C ,  9-C ) :   0.7346 B(  8-C , 10-O ) :   0.4330 B(  8-C , 11-C ) :   0.2869
B(  8-C , 12-N ) :   0.1668 B(  8-C , 20-C ) :   0.7121 B(  8-C , 21-O ) :   0.1471
B(  9-C , 11-C ) :   0.6541 B(  9-C , 14-C ) :   0.1105 B(  9-C , 20-C ) :  -0.3067
B( 10-O , 11-C ) :   0.4242 B( 10-O , 20-C ) :   0.1116 B( 11-C , 12-N ) :   0.9825
B( 11-C , 13-C ) :  -0.2289 B( 11-C , 14-C ) :  -0.2330 B( 11-C , 20-C ) :   0.7491
B( 11-C , 21-O ) :   0.1669 B( 12-N , 13-C ) :   0.9761 B( 12-N , 14-C ) :   0.4536
B( 12-N , 20-C ) :  -0.2507 B( 13-C , 30-H ) :   0.9413 B( 13-C , 31-H ) :   0.9913
B( 13-C , 32-H ) :   0.9995 B( 14-C , 15-C ) :   0.6381 B( 14-C , 16-C ) :  -0.1740
B( 14-C , 17-C ) :  -0.1558 B( 14-C , 19-C ) :   0.6900 B( 14-C , 20-C ) :   0.1442
B( 14-C , 33-H ) :  -0.1066 B( 15-C , 16-C ) :   1.1467 B( 15-C , 19-C ) :   0.1380
B( 15-C , 33-H ) :   1.0684 B( 16-C , 17-C ) :   1.2942 B( 16-C , 19-C ) :   0.1181
B( 16-C , 34-H ) :   0.9864 B( 17-C , 18-C ) :   1.1940 B( 17-C , 35-H ) :   0.9367
B( 18-C , 19-C ) :   1.2001 B( 18-C , 36-H ) :   0.9523 B( 19-C , 37-H ) :   1.0643
B( 20-C , 21-O ) :   0.5119

-----------------------------------------------------------------------------
         ABSORPTION SPECTRUM VIA TRANSITION ELECTRIC DIPOLE MOMENTS
-----------------------------------------------------------------------------
State   Energy    Wavelength  fosc         T2        TX        TY        TZ
        (cm-1)      (nm)                 (au**2)    (au)      (au)      (au)
-----------------------------------------------------------------------------
   1   27709.9    360.9   0.800239655   9.50737  -3.06764   0.06527  -0.30450
   2   31751.3    314.9   0.183488017   1.90249   1.37594  -0.00503   0.09611
   3   33561.3    298.0   0.015093609   0.14806   0.08341  -0.08591   0.36568
   4   34039.4    293.8   0.000842214   0.00815  -0.05845   0.06016   0.03332
   5   35119.0    284.7   0.072444594   0.67911   0.18948  -0.79583  -0.09934
   6   35894.6    278.6   0.011202343   0.10274   0.29892   0.02320   0.11336
   7   36723.1    272.3   0.048703709   0.43661   0.00342   0.65076   0.11455
   8   37854.4    264.2   0.073853312   0.64229   0.79197   0.01492   0.12185
   9   39033.7    256.2   0.061328611   0.51725   0.70039   0.02538  -0.16143
  10   39227.5    254.9   0.006320080   0.05304  -0.22307  -0.04274   0.03810

FINAL SINGLE POINT ENERGY      -954.886862177768

DIPOLE MOMENT
-------------
                                X             Y             Z
Electronic contribution:      0.09028       0.08740      -0.01176
Nuclear contribution   :      0.01111      -0.29870       0.00389
                        -----------------------------------------
Total Dipole Moment    :      0.10139      -0.21130      -0.00787
                        -----------------------------------------
Magnitude (a.u.)       :      0.23450
Magnitude (Debye)      :      0.59605

Rotational constants in cm-1:     0.017328     0.005364     0.004358
Rotational constants in MHz :   519.468193   160.796317   130.649656

                             ****ORCA TERMINATED NORMALLY****
TOTAL RUN TIME: 0 days 19 hours 34 minutes 38 seconds 429 msec
