                         Program Version 5.0.2 -  RELEASE  -
|  1> ! b3lyp aug-cc-PVTZ RIJCOSX Opt
|  2> %maxcore 4000
|  3> %basis
|  4>  AuxJ "aug-cc-PVTZ/JK"
|  5>  AuxC "aug-cc-PVTZ/C"
|  6>  newGTO H "cc-PVTZ" end
|  7>  newAuxJGTO H "cc-PVTZ/JK" end
|  8>  newAuxCGTO H "cc-PVTZ/C" end
|  9> end
| 10> %cpcm
| 11>  SMD true
| 12>  SMDsolvent "dimethylsulfoxide"
| 13> end
| 14> %pal nprocs 4 end
| 15> * xyz 0 1
| 16> C         -6.40460        1.20310        0.64210
| 17> C         -5.24970        0.46740        0.07220
| 18> C         -5.28390       -0.60600       -0.78920
| 19> N         -4.10750       -1.10170       -1.17240
| 20> C         -3.10180       -0.47260       -0.65330
| 21> N         -1.84160       -0.77160       -0.88030
| 22> N         -0.94070       -0.06400       -0.28470
| 23> C          0.33600       -0.36430       -0.52760
| 24> C          0.92970       -1.31870       -1.34880
| 25> C          2.31270       -1.28290       -1.30880
| 26> C          2.81780       -0.30790       -0.46080
| 27> C          4.18450       -0.01940       -0.19830
| 28> C          4.70860        0.93560        0.64110
| 29> C          6.11230        0.94260        0.65870
| 30> C          6.65350        0.00020       -0.16130
| 31> S          5.45820       -0.92080       -0.97660
| 32> S          1.54470        0.58790        0.30300
| 33> S         -3.62590        0.89480        0.43750
| 34> H         -7.33680        0.75810        0.30210
| 35> H         -6.37820        2.24890        0.33630
| 36> H         -6.37380        1.17710        1.73100
| 37> H         -6.18500       -1.05910       -1.16430
| 38> H          0.33790       -1.99490       -1.93880
| 39> H          2.95460       -1.93830       -1.87160
| 40> H          4.09050        1.60000        1.21750
| 41> H          6.69910        1.61820        1.25460
| 42> H          7.68910       -0.21160       -0.33850
| 43> *
| 44>
| 45>
| 46> $new_job
| 47> ! b3lyp aug-cc-PVTZ RIJCOSX SP
| 48> %maxcore 4000
| 49> %basis
| 50>  AuxJ "aug-cc-PVTZ/JK"
| 51>  AuxC "aug-cc-PVTZ/C"
| 52>  newGTO H "cc-PVTZ" end
| 53>  newAuxJGTO H "cc-PVTZ/JK" end
| 54>  newAuxCGTO H "cc-PVTZ/C" end
| 55> end
| 56> %cpcm
| 57>  SMD true
| 58>  SMDsolvent "dimethylsulfoxide"
| 59> end
| 60> %pal nprocs 4 end
| 61> %tddft
| 62>  nroots 10
| 63>  maxdim 7
| 64> end
| 65> * xyzfile 0 1
| 66>
| 67>                          ****END OF INPUT****
 Total Charge           Charge          ....    0
 Multiplicity           Mult            ....    1
 Number of Electrons    NEL             ....  150
FINAL SINGLE POINT ENERGY     -1821.231218741865
FINAL SINGLE POINT ENERGY     -1821.235111652254
FINAL SINGLE POINT ENERGY     -1821.236373458978
FINAL SINGLE POINT ENERGY     -1821.236649336290
FINAL SINGLE POINT ENERGY     -1821.236714857522
FINAL SINGLE POINT ENERGY     -1821.236748152442
FINAL SINGLE POINT ENERGY     -1821.236741897813
FINAL SINGLE POINT ENERGY     -1821.236741922880
                    ***********************HURRAY********************
FINAL SINGLE POINT ENERGY     -1821.236741666396

CARTESIAN COORDINATES (ANGSTROEM)
---------------------------------
  C     -6.423642    1.183443    0.730890
  C     -5.288852    0.467200    0.085701
  C     -5.336198   -0.550672   -0.827101
  N     -4.142627   -1.044371   -1.262383
  C     -3.137521   -0.423143   -0.703042
  N     -1.837522   -0.760234   -0.980915
  N     -0.965400   -0.061889   -0.374443
  C      0.336339   -0.381852   -0.606582
  C      0.940283   -1.366337   -1.373643
  C      2.333030   -1.330414   -1.300226
  C      2.834019   -0.324539   -0.481820
  C      4.208935   -0.020619   -0.189485
  C      4.724839    0.990607    0.591339
  C      6.137475    0.989250    0.658360
  C      6.701831   -0.019583   -0.068582
  S      5.510661   -0.989168   -0.849238
  S      1.535576    0.595503    0.215074
  S     -3.625680    0.845945    0.428566
  H     -7.367606    0.771445    0.374718
  H     -6.407338    2.251104    0.501068
  H     -6.394769    1.083305    1.818116
  H     -6.256009   -0.973240   -1.206401
  H      0.381483   -2.081180   -1.958172
  H      2.969317   -2.023195   -1.832609
  H      4.109106    1.717462    1.102797
  H      6.712738    1.708799    1.222655
  H      7.747232   -0.253526   -0.193841

 Multiplicity           Mult            ....    1
 Number of Electrons    NEL             ....  150
 Basis Dimension        Dim             ....  966

ORBITAL ENERGIES
----------------

  NO   OCC          E(Eh)            E(eV)
   0   2.0000     -88.930886     -2419.9324
   1   2.0000     -88.925614     -2419.7890
   2   2.0000     -88.924305     -2419.7533
   3   2.0000     -14.381630      -391.3441
   4   2.0000     -14.372508      -391.0958
   5   2.0000     -14.328156      -389.8890
   6   2.0000     -10.262679      -279.2617
   7   2.0000     -10.240956      -278.6706
   8   2.0000     -10.238042      -278.5913
   9   2.0000     -10.224311      -278.2176
  10   2.0000     -10.219582      -278.0890
  11   2.0000     -10.207804      -277.7685
  12   2.0000     -10.203170      -277.6424
  13   2.0000     -10.195446      -277.4322
  14   2.0000     -10.192915      -277.3633
  15   2.0000     -10.187654      -277.2202
  16   2.0000     -10.183114      -277.0966
  17   2.0000     -10.173369      -276.8314
  18   2.0000      -7.982289      -217.2091
  19   2.0000      -7.976685      -217.0566
  20   2.0000      -7.975299      -217.0189
  21   2.0000      -5.945815      -161.7939
  22   2.0000      -5.942379      -161.7003
  23   2.0000      -5.940263      -161.6428
  24   2.0000      -5.939580      -161.6242
  25   2.0000      -5.938622      -161.5981
  26   2.0000      -5.936611      -161.5434
  27   2.0000      -5.935347      -161.5090
  28   2.0000      -5.934208      -161.4780
  29   2.0000      -5.932902      -161.4425
  30   2.0000      -1.053338       -28.6628
  31   2.0000      -0.971062       -26.4239
  32   2.0000      -0.909245       -24.7418
  33   2.0000      -0.885786       -24.1035
  34   2.0000      -0.825686       -22.4681
  35   2.0000      -0.812634       -22.1129
  36   2.0000      -0.768478       -20.9113
  37   2.0000      -0.755748       -20.5649
  38   2.0000      -0.742213       -20.1966
  39   2.0000      -0.732652       -19.9365
  40   2.0000      -0.701321       -19.0839
  41   2.0000      -0.672303       -18.2943
  42   2.0000      -0.604848       -16.4588
  43   2.0000      -0.601477       -16.3670
  44   2.0000      -0.566186       -15.4067
  45   2.0000      -0.560929       -15.2637
  46   2.0000      -0.541362       -14.7312
  47   2.0000      -0.530313       -14.4305
  48   2.0000      -0.522049       -14.2057
  49   2.0000      -0.490629       -13.3507
  50   2.0000      -0.467789       -12.7292
  51   2.0000      -0.462131       -12.5752
  52   2.0000      -0.456215       -12.4143
  53   2.0000      -0.437443       -11.9034
  54   2.0000      -0.431602       -11.7445
  55   2.0000      -0.419425       -11.4131
  56   2.0000      -0.414732       -11.2854
  57   2.0000      -0.409709       -11.1487
  58   2.0000      -0.405042       -11.0217
  59   2.0000      -0.403424       -10.9777
  60   2.0000      -0.394482       -10.7344
  61   2.0000      -0.386314       -10.5121
  62   2.0000      -0.378239       -10.2924
  63   2.0000      -0.367465        -9.9992
  64   2.0000      -0.361048        -9.8246
  65   2.0000      -0.352832        -9.6011
  66   2.0000      -0.345637        -9.4053
  67   2.0000      -0.295767        -8.0482
  68   2.0000      -0.293076        -7.9750
  69   2.0000      -0.287058        -7.8112
  70   2.0000      -0.274849        -7.4790
  71   2.0000      -0.263423        -7.1681
  72   2.0000      -0.255438        -6.9508
  73   2.0000      -0.249722        -6.7953
  74   2.0000      -0.206735        -5.6256
  75   0.0000      -0.114100        -3.1048
  76   0.0000      -0.052179        -1.4199
  77   0.0000      -0.012121        -0.3298
  78   0.0000      -0.003132        -0.0852
  79   0.0000       0.000265         0.0072

MULLIKEN ATOMIC CHARGES
-----------------------
   0 C :   -0.621969
   1 C :    0.727336
   2 C :   -0.880863
   3 N :   -0.383842
   4 C :    0.318201
   5 N :   -0.340493
   6 N :   -0.106964
   7 C :    0.086621
   8 C :   -0.216234
   9 C :   -0.934580
  10 C :    1.151803
  11 C :    0.976227
  12 C :   -0.840097
  13 C :   -0.383954
  14 C :   -0.412577
  15 S :    0.112723
  16 S :   -0.024157
  17 S :    0.188891
  18 H :    0.161181
  19 H :    0.173964
  20 H :    0.173573
  21 H :    0.194784
  22 H :    0.185207
  23 H :    0.140657
  24 H :    0.144442
  25 H :    0.219659
  26 H :    0.190462
Sum of atomic charges:   -0.0000000

LOEWDIN ATOMIC CHARGES
----------------------
   0 C :   -0.030209
   1 C :   -0.844391
   2 C :   -0.291186
   3 N :    0.168104
   4 C :   -0.946671
   5 N :    0.090635
   6 N :    0.044675
   7 C :   -0.802757
   8 C :   -0.090409
   9 C :   -0.119523
  10 C :   -0.696509
  11 C :   -0.715026
  12 C :   -0.158158
  13 C :   -0.224632
  14 C :   -0.450181
  15 S :    1.157742
  16 S :    1.273167
  17 S :    1.220096
  18 H :    0.133135
  19 H :    0.124733
  20 H :    0.124906
  21 H :    0.172916
  22 H :    0.186067
  23 H :    0.188417
  24 H :    0.184674
  25 H :    0.164297
  26 H :    0.136087

  Mayer bond orders larger than 0.100000
B(  0-C ,  1-C ) :   0.6093 B(  0-C , 18-H ) :   1.0064 B(  0-C , 19-H ) :   0.9955
B(  0-C , 20-H ) :   0.9945 B(  1-C ,  2-C ) :   0.8088 B(  1-C , 17-S ) :   1.0023
B(  2-C ,  3-N ) :   0.9942 B(  2-C , 17-S ) :   0.1990 B(  2-C , 21-H ) :   1.0865
B(  3-N ,  4-C ) :   1.0797 B(  3-N ,  5-N ) :  -0.2128 B(  3-N ,  6-N ) :   0.1151
B(  4-C ,  5-N ) :   0.9663 B(  4-C , 17-S ) :   0.9499 B(  5-N ,  6-N ) :   0.3856
B(  5-N ,  7-C ) :   0.3445 B(  5-N ,  8-C ) :  -0.1212 B(  6-N ,  7-C ) :   0.6104
B(  6-N ,  8-C ) :  -0.2587 B(  7-C ,  8-C ) :   1.2221 B(  7-C ,  9-C ) :   0.2271
B(  7-C , 10-C ) :  -0.1993 B(  7-C , 16-S ) :   0.7956 B(  8-C ,  9-C ) :   0.9139
B(  8-C , 16-S ) :   0.1189 B(  8-C , 22-H ) :   1.0645 B(  9-C , 10-C ) :   0.3118
B(  9-C , 11-C ) :   0.1857 B(  9-C , 16-S ) :   0.2117 B(  9-C , 23-H ) :   1.1005
B( 10-C , 11-C ) :   0.3984 B( 10-C , 13-C ) :   0.1168 B( 10-C , 15-S ) :   0.1491
B( 10-C , 16-S ) :   0.7604 B( 10-C , 23-H ) :  -0.1232 B( 11-C , 12-C ) :   0.6857
B( 11-C , 13-C ) :  -0.1989 B( 11-C , 14-C ) :  -0.1010 B( 11-C , 15-S ) :   0.4183
B( 12-C , 13-C ) :   1.1459 B( 12-C , 14-C ) :   0.1643 B( 12-C , 15-S ) :   0.2186
B( 12-C , 24-H ) :   1.0702 B( 13-C , 14-C ) :   1.3231 B( 13-C , 15-S ) :   0.1242
B( 13-C , 25-H ) :   0.9714 B( 14-C , 15-S ) :   1.1045 B( 14-C , 26-H ) :   1.0059

-----------------------------------------------------------------------------
         ABSORPTION SPECTRUM VIA TRANSITION ELECTRIC DIPOLE MOMENTS
-----------------------------------------------------------------------------
State   Energy    Wavelength  fosc         T2        TX        TY        TZ
        (cm-1)      (nm)                 (au**2)    (au)      (au)      (au)
-----------------------------------------------------------------------------
   1   20191.3    495.3   1.789928747  29.18421   5.40013  -0.14954  -0.02188
   2   21521.8    464.6   0.025058985   0.38332  -0.61815   0.03027  -0.01716
   3   27219.6    367.4   0.037444364   0.45288  -0.62516   0.18009   0.17212
   4   29151.9    343.0   0.006830232   0.07713  -0.27374   0.04409   0.01604
   5   30900.4    323.6   0.005634506   0.06003  -0.08131   0.19624   0.12209
   6   32037.9    312.1   0.000605442   0.00622   0.04244   0.06520  -0.01297
   7   32422.1    308.4   0.234281855   2.37888  -1.15491  -0.75789  -0.68606
   8   34309.3    291.5   0.035316457   0.33888   0.54384  -0.15866  -0.13393
   9   36353.9    275.1   0.033829195   0.30635   0.50972  -0.17158  -0.13075
  10   38444.8    260.1   0.000453533   0.00388  -0.00295  -0.03211   0.05333

FINAL SINGLE POINT ENERGY     -1821.144743577897

DIPOLE MOMENT
-------------
                                X             Y             Z
Electronic contribution:      8.67860      -1.73217      -1.44412
Nuclear contribution   :     -7.36122       2.58386       2.28092
                        -----------------------------------------
Total Dipole Moment    :      1.31738       0.85168       0.83680
                        -----------------------------------------
Magnitude (a.u.)       :      1.77795
Magnitude (Debye)      :      4.51919

Rotational constants in cm-1:     0.049889     0.003378     0.003166
Rotational constants in MHz :  1495.642300   101.266670    94.927074

                             ****ORCA TERMINATED NORMALLY****
TOTAL RUN TIME: 0 days 2 hours 13 minutes 11 seconds 547 msec
