                         Program Version 5.0.2 -  RELEASE  -
|  1> ! m062x defgrid3 aug-cc-PVTZ RIJCOSX Opt
|  2> %maxcore 4000
|  3> %basis
|  4>  AuxJ "aug-cc-PVTZ/JK"
|  5>  AuxC "aug-cc-PVTZ/C"
|  6>  newGTO H "cc-PVTZ" end
|  7>  newAuxJGTO H "cc-PVTZ/JK" end
|  8>  newAuxCGTO H "cc-PVTZ/C" end
|  9> end
| 10> %cpcm
| 11>  SMD true
| 12>  SMDsolvent "dimethylsulfoxide"
| 13> end
| 14> %pal nprocs 4 end
| 15> * xyz 0 1
| 16> C         -6.40460        1.20310        0.64210
| 17> C         -5.24970        0.46740        0.07220
| 18> C         -5.28390       -0.60600       -0.78920
| 19> N         -4.10750       -1.10170       -1.17240
| 20> C         -3.10180       -0.47260       -0.65330
| 21> N         -1.84160       -0.77160       -0.88030
| 22> N         -0.94070       -0.06400       -0.28470
| 23> C          0.33600       -0.36430       -0.52760
| 24> C          0.92970       -1.31870       -1.34880
| 25> C          2.31270       -1.28290       -1.30880
| 26> C          2.81780       -0.30790       -0.46080
| 27> C          4.18450       -0.01940       -0.19830
| 28> C          4.70860        0.93560        0.64110
| 29> C          6.11230        0.94260        0.65870
| 30> C          6.65350        0.00020       -0.16130
| 31> S          5.45820       -0.92080       -0.97660
| 32> S          1.54470        0.58790        0.30300
| 33> S         -3.62590        0.89480        0.43750
| 34> H         -7.33680        0.75810        0.30210
| 35> H         -6.37820        2.24890        0.33630
| 36> H         -6.37380        1.17710        1.73100
| 37> H         -6.18500       -1.05910       -1.16430
| 38> H          0.33790       -1.99490       -1.93880
| 39> H          2.95460       -1.93830       -1.87160
| 40> H          4.09050        1.60000        1.21750
| 41> H          6.69910        1.61820        1.25460
| 42> H          7.68910       -0.21160       -0.33850
| 43> *
| 44>
| 45>
| 46> $new_job
| 47> ! m062x defgrid3 aug-cc-PVTZ RIJCOSX SP
| 48> %maxcore 4000
| 49> %basis
| 50>  AuxJ "aug-cc-PVTZ/JK"
| 51>  AuxC "aug-cc-PVTZ/C"
| 52>  newGTO H "cc-PVTZ" end
| 53>  newAuxJGTO H "cc-PVTZ/JK" end
| 54>  newAuxCGTO H "cc-PVTZ/C" end
| 55> end
| 56> %cpcm
| 57>  SMD true
| 58>  SMDsolvent "dimethylsulfoxide"
| 59> end
| 60> %pal nprocs 4 end
| 61> %tddft
| 62>  nroots 10
| 63>  maxdim 7
| 64> end
| 65> * xyzfile 0 1
| 66>
| 67>                          ****END OF INPUT****
 Total Charge           Charge          ....    0
 Multiplicity           Mult            ....    1
 Number of Electrons    NEL             ....  150
FINAL SINGLE POINT ENERGY     -1821.448838393927
FINAL SINGLE POINT ENERGY     -1821.455318468077
FINAL SINGLE POINT ENERGY     -1821.458334293498
FINAL SINGLE POINT ENERGY     -1821.458589457206
FINAL SINGLE POINT ENERGY     -1821.458624559898
FINAL SINGLE POINT ENERGY     -1821.458675339828
FINAL SINGLE POINT ENERGY     -1821.458675631753
FINAL SINGLE POINT ENERGY     -1821.458680242799
                    ***********************HURRAY********************
FINAL SINGLE POINT ENERGY     -1821.458681342216

CARTESIAN COORDINATES (ANGSTROEM)
---------------------------------
  C     -6.389591    1.218421    0.689710
  C     -5.259896    0.467411    0.077496
  C     -5.316058   -0.574896   -0.797728
  N     -4.118886   -1.086787   -1.210229
  C     -3.132902   -0.448242   -0.661197
  N     -1.813744   -0.792420   -0.931390
  N     -0.972639   -0.086936   -0.334331
  C      0.347138   -0.401409   -0.579677
  C      0.926871   -1.363830   -1.371931
  C      2.327224   -1.320892   -1.315144
  C      2.815325   -0.333443   -0.484700
  C      4.196549   -0.015523   -0.195999
  C      4.693433    0.957208    0.629764
  C      6.109989    0.978574    0.674235
  C      6.671884    0.023679   -0.115630
  S      5.486012   -0.912568   -0.925425
  S      1.533197    0.558895    0.237133
  S     -3.607901    0.840078    0.412213
  H     -7.332060    0.799829    0.340672
  H     -6.356249    2.273639    0.416414
  H     -6.363494    1.155295    1.778006
  H     -6.237461   -1.001303   -1.167722
  H      0.355910   -2.064318   -1.962692
  H      2.968257   -1.994898   -1.866395
  H      4.066008    1.637475    1.189954
  H      6.684657    1.673814    1.268071
  H      7.718127   -0.186751   -0.272678

 Multiplicity           Mult            ....    1
 Number of Electrons    NEL             ....  150
 Basis Dimension        Dim             ....  966

ORBITAL ENERGIES
----------------

  NO   OCC          E(Eh)            E(eV)
   0   2.0000     -89.977404     -2448.4096
   1   2.0000     -89.972662     -2448.2806
   2   2.0000     -89.968974     -2448.1802
   3   2.0000     -14.828585      -403.5063
   4   2.0000     -14.819853      -403.2687
   5   2.0000     -14.765582      -401.7919
   6   2.0000     -10.634758      -289.3865
   7   2.0000     -10.608239      -288.6649
   8   2.0000     -10.603767      -288.5432
   9   2.0000     -10.590112      -288.1716
  10   2.0000     -10.587416      -288.0982
  11   2.0000     -10.573660      -287.7239
  12   2.0000     -10.571360      -287.6613
  13   2.0000     -10.563174      -287.4386
  14   2.0000     -10.558938      -287.3233
  15   2.0000     -10.553275      -287.1692
  16   2.0000     -10.548558      -287.0409
  17   2.0000     -10.539188      -286.7859
  18   2.0000      -8.312961      -226.2072
  19   2.0000      -8.308095      -226.0748
  20   2.0000      -8.304256      -225.9703
  21   2.0000      -6.232138      -169.5851
  22   2.0000      -6.230182      -169.5319
  23   2.0000      -6.228579      -169.4882
  24   2.0000      -6.227138      -169.4490
  25   2.0000      -6.225191      -169.3961
  26   2.0000      -6.223767      -169.3573
  27   2.0000      -6.223519      -169.3506
  28   2.0000      -6.221409      -169.2931
  29   2.0000      -6.219995      -169.2547
  30   2.0000      -1.186154       -32.2769
  31   2.0000      -1.089296       -29.6412
  32   2.0000      -1.018022       -27.7018
  33   2.0000      -0.991528       -26.9809
  34   2.0000      -0.926737       -25.2178
  35   2.0000      -0.913114       -24.8471
  36   2.0000      -0.864794       -23.5323
  37   2.0000      -0.851242       -23.1635
  38   2.0000      -0.834738       -22.7144
  39   2.0000      -0.825677       -22.4678
  40   2.0000      -0.794374       -21.6160
  41   2.0000      -0.760748       -20.7010
  42   2.0000      -0.685626       -18.6568
  43   2.0000      -0.681561       -18.5462
  44   2.0000      -0.645574       -17.5670
  45   2.0000      -0.640953       -17.4412
  46   2.0000      -0.617443       -16.8015
  47   2.0000      -0.605769       -16.4838
  48   2.0000      -0.602484       -16.3944
  49   2.0000      -0.561243       -15.2722
  50   2.0000      -0.549014       -14.9394
  51   2.0000      -0.547730       -14.9045
  52   2.0000      -0.525577       -14.3017
  53   2.0000      -0.508022       -13.8240
  54   2.0000      -0.506201       -13.7744
  55   2.0000      -0.488807       -13.3011
  56   2.0000      -0.482618       -13.1327
  57   2.0000      -0.473272       -12.8784
  58   2.0000      -0.469888       -12.7863
  59   2.0000      -0.466920       -12.7055
  60   2.0000      -0.462895       -12.5960
  61   2.0000      -0.450861       -12.2685
  62   2.0000      -0.439643       -11.9633
  63   2.0000      -0.437913       -11.9162
  64   2.0000      -0.420958       -11.4549
  65   2.0000      -0.413443       -11.2504
  66   2.0000      -0.402389       -10.9496
  67   2.0000      -0.364419        -9.9164
  68   2.0000      -0.353282        -9.6133
  69   2.0000      -0.345019        -9.3884
  70   2.0000      -0.327888        -8.9223
  71   2.0000      -0.326763        -8.8917
  72   2.0000      -0.314908        -8.5691
  73   2.0000      -0.302190        -8.2230
  74   2.0000      -0.255754        -6.9594
  75   0.0000      -0.084629        -2.3029
  76   0.0000      -0.020674        -0.5626
  77   0.0000       0.003156         0.0859
  78   0.0000       0.006510         0.1772
  79   0.0000       0.014462         0.3935

MULLIKEN ATOMIC CHARGES
-----------------------
   0 C :   -0.869037
   1 C :    0.938005
   2 C :   -0.928861
   3 N :   -0.434858
   4 C :    0.315669
   5 N :   -0.341368
   6 N :    0.157601
   7 C :   -0.089344
   8 C :   -0.348737
   9 C :   -1.164935
  10 C :    1.745596
  11 C :    1.115909
  12 C :   -0.803283
  13 C :   -0.452077
  14 C :   -0.425656
  15 S :    0.051017
  16 S :   -0.126675
  17 S :    0.237536
  18 H :    0.163775
  19 H :    0.204477
  20 H :    0.204335
  21 H :    0.196642
  22 H :    0.145900
  23 H :    0.076104
  24 H :    0.103359
  25 H :    0.165207
  26 H :    0.163699
Sum of atomic charges:   -0.0000000

LOEWDIN ATOMIC CHARGES
----------------------
   0 C :   -0.022928
   1 C :   -0.859457
   2 C :   -0.287438
   3 N :    0.175760
   4 C :   -0.961797
   5 N :    0.102740
   6 N :    0.052135
   7 C :   -0.818405
   8 C :   -0.092703
   9 C :   -0.120809
  10 C :   -0.718001
  11 C :   -0.743166
  12 C :   -0.163501
  13 C :   -0.228078
  14 C :   -0.458571
  15 S :    1.169551
  16 S :    1.294833
  17 S :    1.250619
  18 H :    0.134167
  19 H :    0.125368
  20 H :    0.125272
  21 H :    0.175140
  22 H :    0.188950
  23 H :    0.190424
  24 H :    0.186936
  25 H :    0.164420
  26 H :    0.138537

  Mayer bond orders larger than 0.100000
B(  0-C ,  1-C ) :   0.4203 B(  0-C , 18-H ) :   1.0210 B(  0-C , 19-H ) :   0.9984
B(  0-C , 20-H ) :   0.9982 B(  1-C ,  2-C ) :   0.6108 B(  1-C , 17-S ) :   1.0945
B(  1-C , 21-H ) :  -0.1510 B(  2-C ,  3-N ) :   0.8630 B(  2-C ,  5-N ) :   0.1142
B(  2-C , 17-S ) :   0.2244 B(  2-C , 21-H ) :   1.1919 B(  3-N ,  4-C ) :   1.0670
B(  3-N ,  5-N ) :  -0.2672 B(  3-N ,  7-C ) :   0.1067 B(  4-C ,  5-N ) :   0.8959
B(  4-C ,  7-C ) :   0.1052 B(  4-C , 17-S ) :   1.0170 B(  5-N ,  6-N ) :   0.5277
B(  5-N ,  7-C ) :   0.2414 B(  6-N ,  7-C ) :   0.6769 B(  6-N ,  8-C ) :  -0.4242
B(  6-N , 10-C ) :   0.1272 B(  6-N , 16-S ) :  -0.1251 B(  7-C ,  8-C ) :   1.0509
B(  7-C ,  9-C ) :   0.2657 B(  7-C , 10-C ) :  -0.3188 B(  7-C , 11-C ) :   0.1530
B(  7-C , 16-S ) :   1.1606 B(  7-C , 22-H ) :  -0.1185 B(  8-C ,  9-C ) :   1.3625
B(  8-C , 10-C ) :  -0.2518 B(  8-C , 22-H ) :   1.2464 B(  9-C , 10-C ) :  -0.3187
B(  9-C , 11-C ) :   0.3044 B(  9-C , 15-S ) :   0.1306 B(  9-C , 16-S ) :   0.1945
B(  9-C , 22-H ) :  -0.1452 B(  9-C , 23-H ) :   1.3037 B( 10-C , 11-C ) :   0.1942
B( 10-C , 12-C ) :  -0.1013 B( 10-C , 13-C ) :   0.1177 B( 10-C , 16-S ) :   0.5761
B( 10-C , 23-H ) :  -0.3657 B( 11-C , 12-C ) :   0.3980 B( 11-C , 13-C ) :  -0.3562
B( 11-C , 14-C ) :  -0.1740 B( 11-C , 15-S ) :   0.4137 B( 11-C , 24-H ) :  -0.1832
B( 12-C , 13-C ) :   1.1873 B( 12-C , 14-C ) :   0.1353 B( 12-C , 15-S ) :   0.1705
B( 12-C , 24-H ) :   1.1832 B( 13-C , 14-C ) :   1.2337 B( 13-C , 25-H ) :   1.1034
B( 14-C , 15-S ) :   1.1510 B( 14-C , 26-H ) :   1.0680

-----------------------------------------------------------------------------
         ABSORPTION SPECTRUM VIA TRANSITION ELECTRIC DIPOLE MOMENTS
-----------------------------------------------------------------------------
State   Energy    Wavelength  fosc         T2        TX        TY        TZ
        (cm-1)      (nm)                 (au**2)    (au)      (au)      (au)
-----------------------------------------------------------------------------
   1   22852.0    437.6   0.000058518   0.00084  -0.02253  -0.01134   0.01439
   2   23662.7    422.6   1.507124503  20.96813  -4.57693   0.13334   0.04503
   3   33628.0    297.4   0.030595117   0.29952  -0.04003   0.41623   0.35309
   4   35797.0    279.4   0.016329491   0.15018   0.03000  -0.29819  -0.24567
   5   37204.3    268.8   0.129684843   1.14755   0.87380   0.46793   0.40628
   6   38270.2    261.3   0.000337865   0.00291  -0.00184  -0.03471   0.04121
   7   39046.4    256.1   0.121526417   1.02462   0.26172   0.74776   0.63007
   8   40978.0    244.0   0.091885699   0.73820  -0.84221  -0.12443  -0.11575
   9   43048.2    232.3   0.000125259   0.00096   0.00275   0.01897  -0.02430
  10   43990.9    227.3   0.001338860   0.01002  -0.00538  -0.06467   0.07621

FINAL SINGLE POINT ENERGY     -1821.354559858643

DIPOLE MOMENT
-------------
                                X             Y             Z
Electronic contribution:      8.08776      -1.77328      -1.40495
Nuclear contribution   :     -7.34574       2.68353       2.18488
                        -----------------------------------------
Total Dipole Moment    :      0.74202       0.91026       0.77994
                        -----------------------------------------
Magnitude (a.u.)       :      1.40977
Magnitude (Debye)      :      3.58336

Rotational constants in cm-1:     0.050415     0.003411     0.003197
Rotational constants in MHz :  1511.411854   102.260692    95.837311

                             ****ORCA TERMINATED NORMALLY****
TOTAL RUN TIME: 0 days 4 hours 23 minutes 11 seconds 674 msec
