                         Program Version 5.0.2 -  RELEASE  -
|  1> ! pbe0 d3bj aug-cc-PVTZ RIJCOSX Opt
|  2> %maxcore 4000
|  3> %basis
|  4>  AuxJ "aug-cc-PVTZ/JK"
|  5>  AuxC "aug-cc-PVTZ/C"
|  6>  newGTO H "cc-PVTZ" end
|  7>  newAuxJGTO H "cc-PVTZ/JK" end
|  8>  newAuxCGTO H "cc-PVTZ/C" end
|  9> end
| 10> %cpcm
| 11>  SMD true
| 12>  SMDsolvent "dimethylsulfoxide"
| 13> end
| 14> %pal nprocs 4 end
| 15> * xyz 0 1
| 16> C         -6.40460        1.20310        0.64210
| 17> C         -5.24970        0.46740        0.07220
| 18> C         -5.28390       -0.60600       -0.78920
| 19> N         -4.10750       -1.10170       -1.17240
| 20> C         -3.10180       -0.47260       -0.65330
| 21> N         -1.84160       -0.77160       -0.88030
| 22> N         -0.94070       -0.06400       -0.28470
| 23> C          0.33600       -0.36430       -0.52760
| 24> C          0.92970       -1.31870       -1.34880
| 25> C          2.31270       -1.28290       -1.30880
| 26> C          2.81780       -0.30790       -0.46080
| 27> C          4.18450       -0.01940       -0.19830
| 28> C          4.70860        0.93560        0.64110
| 29> C          6.11230        0.94260        0.65870
| 30> C          6.65350        0.00020       -0.16130
| 31> S          5.45820       -0.92080       -0.97660
| 32> S          1.54470        0.58790        0.30300
| 33> S         -3.62590        0.89480        0.43750
| 34> H         -7.33680        0.75810        0.30210
| 35> H         -6.37820        2.24890        0.33630
| 36> H         -6.37380        1.17710        1.73100
| 37> H         -6.18500       -1.05910       -1.16430
| 38> H          0.33790       -1.99490       -1.93880
| 39> H          2.95460       -1.93830       -1.87160
| 40> H          4.09050        1.60000        1.21750
| 41> H          6.69910        1.61820        1.25460
| 42> H          7.68910       -0.21160       -0.33850
| 43> *
| 44>
| 45>
| 46> $new_job
| 47> ! b2plyp aug-cc-PVTZ RIJCOSX SP
| 48> %maxcore 4000
| 49> %basis
| 50>  AuxJ "aug-cc-PVTZ/JK"
| 51>  AuxC "aug-cc-PVTZ/C"
| 52>  newGTO H "cc-PVTZ" end
| 53>  newAuxJGTO H "cc-PVTZ/JK" end
| 54>  newAuxCGTO H "cc-PVTZ/C" end
| 55> end
| 56> %cpcm
| 57>  SMD true
| 58>  SMDsolvent "dimethylsulfoxide"
| 59> end
| 60> %pal nprocs 4 end
| 61> %tddft
| 62>  nroots 10
| 63>  maxdim 7
| 64> end
| 65> * xyzfile 0 1
| 66>
| 67>                          ****END OF INPUT****
 Total Charge           Charge          ....    0
 Multiplicity           Mult            ....    1
 Number of Electrons    NEL             ....  150
Dispersion correction           -0.033923176
FINAL SINGLE POINT ENERGY     -1820.640990834599
Dispersion correction            ... done
Dispersion correction           -0.033879684
FINAL SINGLE POINT ENERGY     -1820.645006922092
Dispersion correction            ... done
Dispersion correction           -0.033821801
FINAL SINGLE POINT ENERGY     -1820.646763903589
Dispersion correction            ... done
FINAL SINGLE POINT ENERGY     -1820.646941044901
FINAL SINGLE POINT ENERGY     -1820.646999866531
FINAL SINGLE POINT ENERGY     -1820.647022743905
FINAL SINGLE POINT ENERGY     -1820.647011345572
FINAL SINGLE POINT ENERGY     -1820.647005996318
FINAL SINGLE POINT ENERGY     -1820.647001012954
Dispersion correction            ... done
Dispersion correction           -0.033808003
FINAL SINGLE POINT ENERGY     -1820.647000528553
Dispersion correction            ... done
                    ***********************HURRAY********************
Dispersion correction           -0.033807851
FINAL SINGLE POINT ENERGY     -1820.647000550606

CARTESIAN COORDINATES (ANGSTROEM)
---------------------------------
  C     -6.362649    1.179149    0.746330
  C     -5.245447    0.462280    0.087745
  C     -5.309194   -0.546377   -0.832454
  N     -4.126029   -1.041613   -1.277246
  C     -3.121951   -0.427605   -0.715419
  N     -1.824325   -0.762561   -0.996645
  N     -0.967655   -0.065801   -0.384800
  C      0.333476   -0.383518   -0.615197
  C      0.930980   -1.366624   -1.383157
  C      2.320818   -1.330599   -1.306204
  C      2.809768   -0.326428   -0.484246
  C      4.179273   -0.018875   -0.184427
  C      4.684861    1.009913    0.574849
  C      6.092851    1.001523    0.655889
  C      6.653349   -0.030219   -0.039386
  S      5.468441   -1.000327   -0.800379
  S      1.520436    0.581862    0.204138
  S     -3.590074    0.819585    0.418562
  H     -7.313032    0.781350    0.389233
  H     -6.334523    2.249966    0.530438
  H     -6.327263    1.062847    1.832312
  H     -6.237739   -0.956845   -1.207773
  H      0.367851   -2.078470   -1.969912
  H      2.965055   -2.019041   -1.837836
  H      4.062432    1.752039    1.058843
  H      6.670770    1.731039    1.206895
  H      7.699223   -0.276551   -0.149350

 Multiplicity           Mult            ....    1
 Number of Electrons    NEL             ....  150
 Basis Dimension        Dim             ....  966

ORBITAL ENERGIES
----------------

  NO   OCC          E(Eh)            E(eV)
   0   2.0000     -90.217734     -2454.9493
   1   2.0000     -90.212231     -2454.7996
   2   2.0000     -90.210375     -2454.7491
   3   2.0000     -14.917485      -405.9254
   4   2.0000     -14.904304      -405.5667
   5   2.0000     -14.853313      -404.1792
   6   2.0000     -10.712180      -291.4932
   7   2.0000     -10.683728      -290.7190
   8   2.0000     -10.682523      -290.6862
   9   2.0000     -10.666514      -290.2506
  10   2.0000     -10.661680      -290.1191
  11   2.0000     -10.651325      -289.8373
  12   2.0000     -10.646245      -289.6991
  13   2.0000     -10.641488      -289.5696
  14   2.0000     -10.635210      -289.3988
  15   2.0000     -10.631308      -289.2926
  16   2.0000     -10.625686      -289.1396
  17   2.0000     -10.615164      -288.8533
  18   2.0000      -8.406968      -228.7652
  19   2.0000      -8.401312      -228.6113
  20   2.0000      -8.399483      -228.5615
  21   2.0000      -6.253387      -170.1633
  22   2.0000      -6.251043      -170.0995
  23   2.0000      -6.249159      -170.0483
  24   2.0000      -6.247638      -170.0069
  25   2.0000      -6.245976      -169.9616
  26   2.0000      -6.245311      -169.9435
  27   2.0000      -6.243602      -169.8971
  28   2.0000      -6.243498      -169.8942
  29   2.0000      -6.241806      -169.8482
  30   2.0000      -1.203901       -32.7598
  31   2.0000      -1.108601       -30.1666
  32   2.0000      -1.038351       -28.2550
  33   2.0000      -1.011588       -27.5267
  34   2.0000      -0.945539       -25.7294
  35   2.0000      -0.931221       -25.3398
  36   2.0000      -0.881841       -23.9961
  37   2.0000      -0.865312       -23.5463
  38   2.0000      -0.850152       -23.1338
  39   2.0000      -0.839346       -22.8398
  40   2.0000      -0.806164       -21.9368
  41   2.0000      -0.772969       -21.0336
  42   2.0000      -0.695250       -18.9187
  43   2.0000      -0.690686       -18.7945
  44   2.0000      -0.651602       -17.7310
  45   2.0000      -0.646988       -17.6054
  46   2.0000      -0.622749       -16.9459
  47   2.0000      -0.609479       -16.5848
  48   2.0000      -0.604917       -16.4606
  49   2.0000      -0.564974       -15.3737
  50   2.0000      -0.549169       -14.9436
  51   2.0000      -0.534886       -14.5550
  52   2.0000      -0.528284       -14.3754
  53   2.0000      -0.510674       -13.8961
  54   2.0000      -0.499650       -13.5962
  55   2.0000      -0.486148       -13.2288
  56   2.0000      -0.480223       -13.0675
  57   2.0000      -0.475073       -12.9274
  58   2.0000      -0.472032       -12.8446
  59   2.0000      -0.468757       -12.7555
  60   2.0000      -0.457424       -12.4471
  61   2.0000      -0.453716       -12.3462
  62   2.0000      -0.439745       -11.9661
  63   2.0000      -0.426153       -11.5962
  64   2.0000      -0.418575       -11.3900
  65   2.0000      -0.410812       -11.1788
  66   2.0000      -0.400718       -10.9041
  67   2.0000      -0.360531        -9.8105
  68   2.0000      -0.338959        -9.2235
  69   2.0000      -0.332640        -9.0516
  70   2.0000      -0.324304        -8.8248
  71   2.0000      -0.315967        -8.5979
  72   2.0000      -0.303331        -8.2541
  73   2.0000      -0.284578        -7.7438
  74   2.0000      -0.233975        -6.3668
  75   0.0000      -0.070199        -1.9102
  76   0.0000      -0.002527        -0.0688
  77   0.0000       0.020549         0.5592
  78   0.0000       0.022662         0.6167
  79   0.0000       0.031543         0.8583

MULLIKEN ATOMIC CHARGES
-----------------------
   0 C :   -0.713009
   1 C :    0.790167
   2 C :   -0.971212
   3 N :   -0.382181
   4 C :    0.329935
   5 N :   -0.377209
   6 N :   -0.022625
   7 C :    0.098929
   8 C :   -0.241180
   9 C :   -1.087656
  10 C :    1.309328
  11 C :    1.056738
  12 C :   -0.879475
  13 C :   -0.478859
  14 C :   -0.440348
  15 S :    0.068118
  16 S :   -0.105043
  17 S :    0.166189
  18 H :    0.189305
  19 H :    0.203193
  20 H :    0.202680
  21 H :    0.230621
  22 H :    0.223492
  23 H :    0.175193
  24 H :    0.179240
  25 H :    0.252732
  26 H :    0.222935
Sum of atomic charges:    0.0000000

LOEWDIN ATOMIC CHARGES
----------------------
   0 C :   -0.032993
   1 C :   -0.856255
   2 C :   -0.293080
   3 N :    0.170334
   4 C :   -0.956845
   5 N :    0.100672
   6 N :    0.050924
   7 C :   -0.812622
   8 C :   -0.085486
   9 C :   -0.117197
  10 C :   -0.711057
  11 C :   -0.733705
  12 C :   -0.157289
  13 C :   -0.226371
  14 C :   -0.457759
  15 S :    1.163852
  16 S :    1.286598
  17 S :    1.241485
  18 H :    0.133645
  19 H :    0.124643
  20 H :    0.124907
  21 H :    0.174490
  22 H :    0.188964
  23 H :    0.189854
  24 H :    0.186463
  25 H :    0.165274
  26 H :    0.138552

  Mayer bond orders larger than 0.100000
B(  0-C ,  1-C ) :   0.6091 B(  0-C , 18-H ) :   1.0050 B(  0-C , 19-H ) :   0.9964
B(  0-C , 20-H ) :   0.9947 B(  1-C ,  2-C ) :   0.8124 B(  1-C , 17-S ) :   1.0109
B(  2-C ,  3-N ) :   0.9291 B(  2-C , 17-S ) :   0.1914 B(  2-C , 21-H ) :   1.0859
B(  3-N ,  4-C ) :   1.1533 B(  3-N ,  5-N ) :  -0.2406 B(  3-N ,  6-N ) :   0.1097
B(  4-C ,  5-N ) :   0.9413 B(  4-C , 17-S ) :   1.0125 B(  5-N ,  6-N ) :   0.4845
B(  5-N ,  7-C ) :   0.2943 B(  6-N ,  7-C ) :   0.6001 B(  6-N ,  8-C ) :  -0.3272
B(  7-C ,  8-C ) :   1.2360 B(  7-C ,  9-C ) :   0.2432 B(  7-C , 10-C ) :  -0.1979
B(  7-C , 16-S ) :   0.8545 B(  8-C ,  9-C ) :   1.0186 B(  8-C , 22-H ) :   1.0624
B(  9-C , 10-C ) :   0.1784 B(  9-C , 11-C ) :   0.2351 B(  9-C , 16-S ) :   0.2511
B(  9-C , 23-H ) :   1.1115 B( 10-C , 11-C ) :   0.4525 B( 10-C , 13-C ) :   0.1257
B( 10-C , 16-S ) :   0.8043 B( 10-C , 23-H ) :  -0.1389 B( 11-C , 12-C ) :   0.6842
B( 11-C , 13-C ) :  -0.2396 B( 11-C , 14-C ) :  -0.1144 B( 11-C , 15-S ) :   0.4663
B( 12-C , 13-C ) :   1.1760 B( 12-C , 14-C ) :   0.1495 B( 12-C , 15-S ) :   0.2170
B( 12-C , 24-H ) :   1.0805 B( 13-C , 14-C ) :   1.3493 B( 13-C , 15-S ) :   0.1106
B( 13-C , 25-H ) :   0.9802 B( 14-C , 15-S ) :   1.0889 B( 14-C , 26-H ) :   1.0154

MP2 TOTAL ENERGY:    -1820.873697960 Eh

-----------------------------------------------------------------------------
         ABSORPTION SPECTRUM VIA TRANSITION ELECTRIC DIPOLE MOMENTS
-----------------------------------------------------------------------------
State   Energy    Wavelength  fosc         T2        TX        TY        TZ
        (cm-1)      (nm)                 (au**2)    (au)      (au)      (au)
-----------------------------------------------------------------------------
   1   20258.0    493.6   1.469422084  23.87952   4.88517  -0.12088  -0.00263
   2   22994.2    434.9   0.008989185   0.12870  -0.35786   0.01859  -0.01697
   3   28998.8    344.8   0.037955694   0.43090  -0.08821  -0.46304  -0.45685
   4   31341.3    319.1   0.005708898   0.05997   0.23812   0.03527   0.04496
   5   32303.7    309.6   0.104557625   1.06556  -0.66475  -0.58194  -0.53387
   6   33666.6    297.0   0.093326365   0.91260   0.11123   0.75802   0.57064
   7   34035.0    293.8   0.000300291   0.00290   0.00930   0.03329  -0.04135
   8   36033.8    277.5   0.063016573   0.57573   0.72415   0.16078   0.15966
   9   41222.3    242.6   0.000119364   0.00095  -0.01869  -0.01754   0.01722
  10   41917.8    238.6   0.003851079   0.03025   0.01913   0.08726  -0.14922

Dispersion correction           -0.031842327
FINAL SINGLE POINT ENERGY     -1819.792829717719

DIPOLE MOMENT
-------------
                                X             Y             Z
Electronic contribution:      8.41446      -1.82341      -1.46691
Nuclear contribution   :     -7.27595       2.67188       2.29691
                        -----------------------------------------
Total Dipole Moment    :      1.13850       0.84848       0.83000
                        -----------------------------------------
Magnitude (a.u.)       :      1.64469
Magnitude (Debye)      :      4.18046

Rotational constants in cm-1:     0.050053     0.003429     0.003213
Rotational constants in MHz :  1500.556015   102.806703    96.319584

                             ****ORCA TERMINATED NORMALLY****
TOTAL RUN TIME: 0 days 4 hours 55 minutes 32 seconds 358 msec
