                         Program Version 5.0.2 -  RELEASE  -
|  1> ! pbe0 d3bj aug-cc-PVTZ RIJCOSX Opt
|  2> %maxcore 4000
|  3> %basis
|  4>  AuxJ "aug-cc-PVTZ/JK"
|  5>  AuxC "aug-cc-PVTZ/C"
|  6>  newGTO H "cc-PVTZ" end
|  7>  newAuxJGTO H "cc-PVTZ/JK" end
|  8>  newAuxCGTO H "cc-PVTZ/C" end
|  9> end
| 10> %cpcm
| 11>  SMD true
| 12>  SMDsolvent "dimethylsulfoxide"
| 13> end
| 14> %pal nprocs 4 end
| 15> * xyz 0 1
| 16> C         -6.40460        1.20310        0.64210
| 17> C         -5.24970        0.46740        0.07220
| 18> C         -5.28390       -0.60600       -0.78920
| 19> N         -4.10750       -1.10170       -1.17240
| 20> C         -3.10180       -0.47260       -0.65330
| 21> N         -1.84160       -0.77160       -0.88030
| 22> N         -0.94070       -0.06400       -0.28470
| 23> C          0.33600       -0.36430       -0.52760
| 24> C          0.92970       -1.31870       -1.34880
| 25> C          2.31270       -1.28290       -1.30880
| 26> C          2.81780       -0.30790       -0.46080
| 27> C          4.18450       -0.01940       -0.19830
| 28> C          4.70860        0.93560        0.64110
| 29> C          6.11230        0.94260        0.65870
| 30> C          6.65350        0.00020       -0.16130
| 31> S          5.45820       -0.92080       -0.97660
| 32> S          1.54470        0.58790        0.30300
| 33> S         -3.62590        0.89480        0.43750
| 34> H         -7.33680        0.75810        0.30210
| 35> H         -6.37820        2.24890        0.33630
| 36> H         -6.37380        1.17710        1.73100
| 37> H         -6.18500       -1.05910       -1.16430
| 38> H          0.33790       -1.99490       -1.93880
| 39> H          2.95460       -1.93830       -1.87160
| 40> H          4.09050        1.60000        1.21750
| 41> H          6.69910        1.61820        1.25460
| 42> H          7.68910       -0.21160       -0.33850
| 43> *
| 44>
| 45>
| 46> $new_job
| 47> ! b2gp-plyp aug-cc-PVTZ RIJCOSX SP
| 48> %maxcore 4000
| 49> %basis
| 50>  AuxJ "aug-cc-PVTZ/JK"
| 51>  AuxC "aug-cc-PVTZ/C"
| 52>  newGTO H "cc-PVTZ" end
| 53>  newAuxJGTO H "cc-PVTZ/JK" end
| 54>  newAuxCGTO H "cc-PVTZ/C" end
| 55> end
| 56> %cpcm
| 57>  SMD true
| 58>  SMDsolvent "dimethylsulfoxide"
| 59> end
| 60> %pal nprocs 4 end
| 61> %tddft
| 62>  nroots 10
| 63>  maxdim 7
| 64> end
| 65> * xyzfile 0 1
| 66>
| 67>                          ****END OF INPUT****
 Total Charge           Charge          ....    0
 Multiplicity           Mult            ....    1
 Number of Electrons    NEL             ....  150
Dispersion correction           -0.033923176
FINAL SINGLE POINT ENERGY     -1820.640990834599
Dispersion correction            ... done
Dispersion correction           -0.033879684
FINAL SINGLE POINT ENERGY     -1820.645006922092
Dispersion correction            ... done
Dispersion correction           -0.033821801
FINAL SINGLE POINT ENERGY     -1820.646763903589
Dispersion correction            ... done
FINAL SINGLE POINT ENERGY     -1820.646941044901
FINAL SINGLE POINT ENERGY     -1820.646999866531
FINAL SINGLE POINT ENERGY     -1820.647022743905
FINAL SINGLE POINT ENERGY     -1820.647011345572
FINAL SINGLE POINT ENERGY     -1820.647005996318
FINAL SINGLE POINT ENERGY     -1820.647001012954
Dispersion correction            ... done
Dispersion correction           -0.033808003
FINAL SINGLE POINT ENERGY     -1820.647000528553
Dispersion correction            ... done
                    ***********************HURRAY********************
Dispersion correction           -0.033807851
FINAL SINGLE POINT ENERGY     -1820.647000550606

CARTESIAN COORDINATES (ANGSTROEM)
---------------------------------
  C     -6.362649    1.179149    0.746330
  C     -5.245447    0.462280    0.087745
  C     -5.309194   -0.546377   -0.832454
  N     -4.126029   -1.041613   -1.277246
  C     -3.121951   -0.427605   -0.715419
  N     -1.824325   -0.762561   -0.996645
  N     -0.967655   -0.065801   -0.384800
  C      0.333476   -0.383518   -0.615197
  C      0.930980   -1.366624   -1.383157
  C      2.320818   -1.330599   -1.306204
  C      2.809768   -0.326428   -0.484246
  C      4.179273   -0.018875   -0.184427
  C      4.684861    1.009913    0.574849
  C      6.092851    1.001523    0.655889
  C      6.653349   -0.030219   -0.039386
  S      5.468441   -1.000327   -0.800379
  S      1.520436    0.581862    0.204138
  S     -3.590074    0.819585    0.418562
  H     -7.313032    0.781350    0.389233
  H     -6.334523    2.249966    0.530438
  H     -6.327263    1.062847    1.832312
  H     -6.237739   -0.956845   -1.207773
  H      0.367851   -2.078470   -1.969912
  H      2.965055   -2.019041   -1.837836
  H      4.062432    1.752039    1.058843
  H      6.670770    1.731039    1.206895
  H      7.699223   -0.276551   -0.149350

 Multiplicity           Mult            ....    1
 Number of Electrons    NEL             ....  150
 Basis Dimension        Dim             ....  966

ORBITAL ENERGIES
----------------

  NO   OCC          E(Eh)            E(eV)
   0   2.0000     -90.677015     -2467.4470
   1   2.0000     -90.671644     -2467.3009
   2   2.0000     -90.669085     -2467.2312
   3   2.0000     -15.110599      -411.1803
   4   2.0000     -15.095700      -410.7749
   5   2.0000     -15.042403      -409.3246
   6   2.0000     -10.875101      -295.9265
   7   2.0000     -10.844085      -295.0826
   8   2.0000     -10.843797      -295.0747
   9   2.0000     -10.826898      -294.6149
  10   2.0000     -10.821598      -294.4707
  11   2.0000     -10.811878      -294.2061
  12   2.0000     -10.806169      -294.0508
  13   2.0000     -10.802761      -293.9581
  14   2.0000     -10.794946      -293.7454
  15   2.0000     -10.791808      -293.6600
  16   2.0000     -10.785506      -293.4885
  17   2.0000     -10.774399      -293.1863
  18   2.0000      -8.562453      -232.9962
  19   2.0000      -8.557019      -232.8483
  20   2.0000      -8.554481      -232.7793
  21   2.0000      -6.366876      -173.2515
  22   2.0000      -6.364982      -173.2000
  23   2.0000      -6.363365      -173.1560
  24   2.0000      -6.361368      -173.1016
  25   2.0000      -6.359461      -173.0497
  26   2.0000      -6.358984      -173.0367
  27   2.0000      -6.357986      -173.0096
  28   2.0000      -6.356982      -172.9823
  29   2.0000      -6.355505      -172.9421
  30   2.0000      -1.258050       -34.2333
  31   2.0000      -1.158676       -31.5292
  32   2.0000      -1.085199       -29.5298
  33   2.0000      -1.057442       -28.7745
  34   2.0000      -0.989982       -26.9388
  35   2.0000      -0.974472       -26.5167
  36   2.0000      -0.924070       -25.1452
  37   2.0000      -0.905615       -24.6430
  38   2.0000      -0.890152       -24.2223
  39   2.0000      -0.878971       -23.9180
  40   2.0000      -0.845646       -23.0112
  41   2.0000      -0.811216       -22.0743
  42   2.0000      -0.729731       -19.8570
  43   2.0000      -0.724483       -19.7142
  44   2.0000      -0.683755       -18.6059
  45   2.0000      -0.679456       -18.4889
  46   2.0000      -0.653866       -17.7926
  47   2.0000      -0.639586       -17.4040
  48   2.0000      -0.635836       -17.3020
  49   2.0000      -0.593296       -16.1444
  50   2.0000      -0.580390       -15.7932
  51   2.0000      -0.561299       -15.2737
  52   2.0000      -0.556107       -15.1324
  53   2.0000      -0.538751       -14.6602
  54   2.0000      -0.525044       -14.2872
  55   2.0000      -0.512168       -13.9368
  56   2.0000      -0.504696       -13.7335
  57   2.0000      -0.500615       -13.6224
  58   2.0000      -0.497824       -13.5465
  59   2.0000      -0.494244       -13.4491
  60   2.0000      -0.481184       -13.0937
  61   2.0000      -0.479484       -13.0474
  62   2.0000      -0.463057       -12.6004
  63   2.0000      -0.448221       -12.1967
  64   2.0000      -0.440764       -11.9938
  65   2.0000      -0.433205       -11.7881
  66   2.0000      -0.422118       -11.4864
  67   2.0000      -0.386771       -10.5246
  68   2.0000      -0.356371        -9.6974
  69   2.0000      -0.351121        -9.5545
  70   2.0000      -0.349744        -9.5170
  71   2.0000      -0.332300        -9.0423
  72   2.0000      -0.319384        -8.6909
  73   2.0000      -0.298914        -8.1339
  74   2.0000      -0.246161        -6.6984
  75   0.0000      -0.055426        -1.5082
  76   0.0000       0.013123         0.3571
  77   0.0000       0.027298         0.7428
  78   0.0000       0.029093         0.7917
  79   0.0000       0.037266         1.0141

MULLIKEN ATOMIC CHARGES
-----------------------
   0 C :   -0.742155
   1 C :    0.808827
   2 C :   -0.989666
   3 N :   -0.385096
   4 C :    0.337441
   5 N :   -0.392310
   6 N :    0.006095
   7 C :    0.113714
   8 C :   -0.246057
   9 C :   -1.138806
  10 C :    1.363729
  11 C :    1.072392
  12 C :   -0.884775
  13 C :   -0.509075
  14 C :   -0.443490
  15 S :    0.043887
  16 S :   -0.142805
  17 S :    0.143010
  18 H :    0.199351
  19 H :    0.213655
  20 H :    0.213045
  21 H :    0.242862
  22 H :    0.235674
  23 H :    0.187779
  24 H :    0.192149
  25 H :    0.264652
  26 H :    0.235973
Sum of atomic charges:   -0.0000000

LOEWDIN ATOMIC CHARGES
----------------------
   0 C :   -0.033615
   1 C :   -0.856888
   2 C :   -0.294177
   3 N :    0.169871
   4 C :   -0.955682
   5 N :    0.103395
   6 N :    0.053553
   7 C :   -0.812638
   8 C :   -0.084000
   9 C :   -0.116894
  10 C :   -0.711559
  11 C :   -0.734639
  12 C :   -0.156816
  13 C :   -0.226683
  14 C :   -0.457647
  15 S :    1.161142
  16 S :    1.284767
  17 S :    1.241407
  18 H :    0.133385
  19 H :    0.124220
  20 H :    0.124488
  21 H :    0.174653
  22 H :    0.189522
  23 H :    0.189850
  24 H :    0.186683
  25 H :    0.165413
  26 H :    0.138890

  Mayer bond orders larger than 0.100000
B(  0-C ,  1-C ) :   0.6123 B(  0-C , 18-H ) :   1.0033 B(  0-C , 19-H ) :   0.9951
B(  0-C , 20-H ) :   0.9932 B(  1-C ,  2-C ) :   0.8200 B(  1-C , 17-S ) :   1.0134
B(  2-C ,  3-N ) :   0.9053 B(  2-C , 17-S ) :   0.1877 B(  2-C , 21-H ) :   1.0845
B(  3-N ,  4-C ) :   1.1803 B(  3-N ,  5-N ) :  -0.2463 B(  3-N ,  6-N ) :   0.1093
B(  4-C ,  5-N ) :   0.9368 B(  4-C , 17-S ) :   1.0315 B(  5-N ,  6-N ) :   0.5230
B(  5-N ,  7-C ) :   0.2801 B(  6-N ,  7-C ) :   0.6105 B(  6-N ,  8-C ) :  -0.3433
B(  7-C ,  8-C ) :   1.2291 B(  7-C ,  9-C ) :   0.2480 B(  7-C , 10-C ) :  -0.1926
B(  7-C , 16-S ) :   0.8798 B(  8-C ,  9-C ) :   1.0625 B(  8-C , 22-H ) :   1.0631
B(  9-C , 10-C ) :   0.1352 B(  9-C , 11-C ) :   0.2515 B(  9-C , 16-S ) :   0.2662
B(  9-C , 23-H ) :   1.1130 B( 10-C , 11-C ) :   0.4711 B( 10-C , 13-C ) :   0.1258
B( 10-C , 16-S ) :   0.8110 B( 10-C , 23-H ) :  -0.1433 B( 11-C , 12-C ) :   0.6900
B( 11-C , 13-C ) :  -0.2489 B( 11-C , 14-C ) :  -0.1198 B( 11-C , 15-S ) :   0.4852
B( 12-C , 13-C ) :   1.1822 B( 12-C , 14-C ) :   0.1406 B( 12-C , 15-S ) :   0.2189
B( 12-C , 24-H ) :   1.0820 B( 13-C , 14-C ) :   1.3580 B( 13-C , 15-S ) :   0.1056
B( 13-C , 25-H ) :   0.9832 B( 14-C , 15-S ) :   1.0873 B( 14-C , 26-H ) :   1.0153

MP2 TOTAL ENERGY:    -1820.616658459 Eh

-----------------------------------------------------------------------------
         ABSORPTION SPECTRUM VIA TRANSITION ELECTRIC DIPOLE MOMENTS
-----------------------------------------------------------------------------
State   Energy    Wavelength  fosc         T2        TX        TY        TZ
        (cm-1)      (nm)                 (au**2)    (au)      (au)      (au)
-----------------------------------------------------------------------------
   1   20956.0    477.2   1.423501370  22.36273   4.72774  -0.10570   0.00739
   2   23862.3    419.1   0.008410178   0.11603  -0.33989   0.01538  -0.01638
   3   31063.6    321.9   0.058441605   0.61936  -0.20063  -0.54530  -0.53081
   4   32011.5    312.4   0.004459667   0.04586   0.14494  -0.11888  -0.10356
   5   33477.9    298.7   0.096070524   0.94473  -0.55093  -0.59928  -0.53110
   6   35901.3    278.5   0.113388986   1.03977  -0.05835  -0.81906  -0.60457
   7   36243.1    275.9   0.000279133   0.00254   0.00681   0.03360  -0.03688
   8   42132.1    237.3   0.000247711   0.00194   0.03011   0.03207   0.00017
   9   37601.2    265.9   0.063018488   0.55175   0.67623   0.22143   0.21314
  10   43300.5    230.9   0.004580845   0.03483  -0.02954  -0.09019   0.16069

Dispersion correction           -0.025890780
FINAL SINGLE POINT ENERGY     -1819.262178578696

DIPOLE MOMENT
-------------
                                X             Y             Z
Electronic contribution:      8.39484      -1.83126      -1.47716
Nuclear contribution   :     -7.27595       2.67188       2.29691
                        -----------------------------------------
Total Dipole Moment    :      1.11889       0.84063       0.81974
                        -----------------------------------------
Magnitude (a.u.)       :      1.62190
Magnitude (Debye)      :      4.12253

Rotational constants in cm-1:     0.050053     0.003429     0.003213
Rotational constants in MHz :  1500.556015   102.806703    96.319584

                             ****ORCA TERMINATED NORMALLY****
TOTAL RUN TIME: 0 days 3 hours 35 minutes 26 seconds 705 msec
