                         Program Version 5.0.2 -  RELEASE  -
|  1> ! pbe0 aug-cc-PVTZ RIJCOSX Opt
|  2> %maxcore 4000
|  3> %basis
|  4>  AuxJ "aug-cc-PVTZ/JK"
|  5>  AuxC "aug-cc-PVTZ/C"
|  6>  newGTO H "cc-PVTZ" end
|  7>  newAuxJGTO H "cc-PVTZ/JK" end
|  8>  newAuxCGTO H "cc-PVTZ/C" end
|  9> end
| 10> %cpcm
| 11>  SMD true
| 12>  SMDsolvent "dimethylsulfoxide"
| 13> end
| 14> %pal nprocs 4 end
| 15> * xyz 0 1
| 16> C         -6.40460        1.20310        0.64210
| 17> C         -5.24970        0.46740        0.07220
| 18> C         -5.28390       -0.60600       -0.78920
| 19> N         -4.10750       -1.10170       -1.17240
| 20> C         -3.10180       -0.47260       -0.65330
| 21> N         -1.84160       -0.77160       -0.88030
| 22> N         -0.94070       -0.06400       -0.28470
| 23> C          0.33600       -0.36430       -0.52760
| 24> C          0.92970       -1.31870       -1.34880
| 25> C          2.31270       -1.28290       -1.30880
| 26> C          2.81780       -0.30790       -0.46080
| 27> C          4.18450       -0.01940       -0.19830
| 28> C          4.70860        0.93560        0.64110
| 29> C          6.11230        0.94260        0.65870
| 30> C          6.65350        0.00020       -0.16130
| 31> S          5.45820       -0.92080       -0.97660
| 32> S          1.54470        0.58790        0.30300
| 33> S         -3.62590        0.89480        0.43750
| 34> H         -7.33680        0.75810        0.30210
| 35> H         -6.37820        2.24890        0.33630
| 36> H         -6.37380        1.17710        1.73100
| 37> H         -6.18500       -1.05910       -1.16430
| 38> H          0.33790       -1.99490       -1.93880
| 39> H          2.95460       -1.93830       -1.87160
| 40> H          4.09050        1.60000        1.21750
| 41> H          6.69910        1.61820        1.25460
| 42> H          7.68910       -0.21160       -0.33850
| 43> *
| 44>
| 45>
| 46> $new_job
| 47> ! pbe0 aug-cc-PVTZ RIJCOSX SP
| 48> %maxcore 4000
| 49> %basis
| 50>  AuxJ "aug-cc-PVTZ/JK"
| 51>  AuxC "aug-cc-PVTZ/C"
| 52>  newGTO H "cc-PVTZ" end
| 53>  newAuxJGTO H "cc-PVTZ/JK" end
| 54>  newAuxCGTO H "cc-PVTZ/C" end
| 55> end
| 56> %cpcm
| 57>  SMD true
| 58>  SMDsolvent "dimethylsulfoxide"
| 59> end
| 60> %pal nprocs 4 end
| 61> %tddft
| 62>  nroots 10
| 63>  maxdim 7
| 64> end
| 65> * xyzfile 0 1
| 66>
| 67>                          ****END OF INPUT****
 Total Charge           Charge          ....    0
 Multiplicity           Mult            ....    1
 Number of Electrons    NEL             ....  150
FINAL SINGLE POINT ENERGY     -1820.607067650305
FINAL SINGLE POINT ENERGY     -1820.611162819498
FINAL SINGLE POINT ENERGY     -1820.612958888405
FINAL SINGLE POINT ENERGY     -1820.613136390081
FINAL SINGLE POINT ENERGY     -1820.613199687164
FINAL SINGLE POINT ENERGY     -1820.613222670725
FINAL SINGLE POINT ENERGY     -1820.613209702292
FINAL SINGLE POINT ENERGY     -1820.613206074113
FINAL SINGLE POINT ENERGY     -1820.613200058888
FINAL SINGLE POINT ENERGY     -1820.613199705238
FINAL SINGLE POINT ENERGY     -1820.613199991493
FINAL SINGLE POINT ENERGY     -1820.613199793917
                    ***********************HURRAY********************
FINAL SINGLE POINT ENERGY     -1820.613198993226

CARTESIAN COORDINATES (ANGSTROEM)
---------------------------------
  C     -6.371281    1.176515    0.746875
  C     -5.250157    0.462445    0.090115
  C     -5.310095   -0.546476   -0.830201
  N     -4.126600   -1.040210   -1.273788
  C     -3.124230   -0.425223   -0.711023
  N     -1.825699   -0.760364   -0.992461
  N     -0.967328   -0.066626   -0.380096
  C      0.334216   -0.384996   -0.614045
  C      0.932341   -1.360751   -1.390393
  C      2.322129   -1.324931   -1.313811
  C      2.812643   -0.328177   -0.483834
  C      4.183510   -0.022029   -0.181749
  C      4.691195    1.015224    0.564603
  C      6.098538    1.003000    0.651680
  C      6.658228   -0.040235   -0.026455
  S      5.472553   -1.017385   -0.775951
  S      1.522392    0.573300    0.211710
  S     -3.596118    0.821838    0.421851
  H     -7.320192    0.780018    0.384075
  H     -6.343407    2.248458    0.536020
  H     -6.341546    1.056104    1.832731
  H     -6.237597   -0.958565   -1.206858
  H      0.369870   -2.067677   -1.984041
  H      2.965274   -2.008564   -1.853243
  H      4.070824    1.768346    1.034378
  H      6.676577    1.739110    1.194021
  H      7.703657   -0.292048   -0.129310

 Multiplicity           Mult            ....    1
 Number of Electrons    NEL             ....  150
 Basis Dimension        Dim             ....  966

ORBITAL ENERGIES
----------------

  NO   OCC          E(Eh)            E(eV)
   0   2.0000     -89.096442     -2424.4374
   1   2.0000     -89.090505     -2424.2759
   2   2.0000     -89.089875     -2424.2587
   3   2.0000     -14.454212      -393.3191
   4   2.0000     -14.444884      -393.0653
   5   2.0000     -14.399518      -391.8308
   6   2.0000     -10.316452      -280.7249
   7   2.0000     -10.295557      -280.1563
   8   2.0000     -10.293710      -280.1061
   9   2.0000     -10.279829      -279.7284
  10   2.0000     -10.275651      -279.6147
  11   2.0000     -10.262784      -279.2645
  12   2.0000     -10.256610      -279.0966
  13   2.0000     -10.249692      -278.9083
  14   2.0000     -10.247272      -278.8425
  15   2.0000     -10.241735      -278.6918
  16   2.0000     -10.237176      -278.5677
  17   2.0000     -10.225936      -278.2619
  18   2.0000      -8.054055      -219.1620
  19   2.0000      -8.047811      -218.9921
  20   2.0000      -8.047192      -218.9752
  21   2.0000      -5.990685      -163.0148
  22   2.0000      -5.987298      -162.9226
  23   2.0000      -5.984825      -162.8554
  24   2.0000      -5.984513      -162.8469
  25   2.0000      -5.983630      -162.8229
  26   2.0000      -5.980905      -162.7487
  27   2.0000      -5.980376      -162.7343
  28   2.0000      -5.978780      -162.6909
  29   2.0000      -5.978243      -162.6763
  30   2.0000      -1.091201       -29.6931
  31   2.0000      -1.005341       -27.3567
  32   2.0000      -0.942300       -25.6413
  33   2.0000      -0.917937       -24.9783
  34   2.0000      -0.854112       -23.2416
  35   2.0000      -0.841533       -22.8993
  36   2.0000      -0.794987       -21.6327
  37   2.0000      -0.781821       -21.2744
  38   2.0000      -0.767276       -20.8786
  39   2.0000      -0.757458       -20.6115
  40   2.0000      -0.725133       -19.7319
  41   2.0000      -0.694050       -18.8861
  42   2.0000      -0.624995       -17.0070
  43   2.0000      -0.622169       -16.9301
  44   2.0000      -0.586496       -15.9594
  45   2.0000      -0.581261       -15.8169
  46   2.0000      -0.559870       -15.2348
  47   2.0000      -0.548968       -14.9382
  48   2.0000      -0.543473       -14.7887
  49   2.0000      -0.508301       -13.8316
  50   2.0000      -0.486492       -13.2381
  51   2.0000      -0.484015       -13.1707
  52   2.0000      -0.471650       -12.8343
  53   2.0000      -0.453795       -12.3484
  54   2.0000      -0.450550       -12.2601
  55   2.0000      -0.433563       -11.7978
  56   2.0000      -0.432791       -11.7768
  57   2.0000      -0.423497       -11.5239
  58   2.0000      -0.418668       -11.3925
  59   2.0000      -0.416568       -11.3354
  60   2.0000      -0.412525       -11.2254
  61   2.0000      -0.400862       -10.9080
  62   2.0000      -0.392793       -10.6884
  63   2.0000      -0.385920       -10.5014
  64   2.0000      -0.375057       -10.2058
  65   2.0000      -0.366078        -9.9615
  66   2.0000      -0.359272        -9.7763
  67   2.0000      -0.309591        -8.4244
  68   2.0000      -0.307996        -8.3810
  69   2.0000      -0.301685        -8.2093
  70   2.0000      -0.288007        -7.8371
  71   2.0000      -0.276206        -7.5159
  72   2.0000      -0.269232        -7.3262
  73   2.0000      -0.261621        -7.1191
  74   2.0000      -0.217464        -5.9175
  75   0.0000      -0.111776        -3.0416
  76   0.0000      -0.048227        -1.3123
  77   0.0000      -0.007323        -0.1993
  78   0.0000       0.003181         0.0866
  79   0.0000       0.006824         0.1857

MULLIKEN ATOMIC CHARGES
-----------------------
   0 C :   -0.584025
   1 C :    0.599477
   2 C :   -0.826758
   3 N :   -0.406943
   4 C :    0.330851
   5 N :   -0.337017
   6 N :   -0.106324
   7 C :    0.097521
   8 C :   -0.246452
   9 C :   -0.914812
  10 C :    1.060941
  11 C :    0.937854
  12 C :   -0.858492
  13 C :   -0.398843
  14 C :   -0.427634
  15 S :    0.075978
  16 S :   -0.066883
  17 S :    0.140108
  18 H :    0.180373
  19 H :    0.188590
  20 H :    0.188180
  21 H :    0.239395
  22 H :    0.240301
  23 H :    0.203157
  24 H :    0.192317
  25 H :    0.272863
  26 H :    0.226279
Sum of atomic charges:    0.0000000

LOEWDIN ATOMIC CHARGES
----------------------
   0 C :   -0.028834
   1 C :   -0.858591
   2 C :   -0.293832
   3 N :    0.174729
   4 C :   -0.962610
   5 N :    0.095243
   6 N :    0.045618
   7 C :   -0.815106
   8 C :   -0.091430
   9 C :   -0.120950
  10 C :   -0.712465
  11 C :   -0.733418
  12 C :   -0.161197
  13 C :   -0.227124
  14 C :   -0.457001
  15 S :    1.169992
  16 S :    1.290285
  17 S :    1.240276
  18 H :    0.135964
  19 H :    0.127495
  20 H :    0.127757
  21 H :    0.176542
  22 H :    0.190076
  23 H :    0.192364
  24 H :    0.188491
  25 H :    0.167433
  26 H :    0.140294

  Mayer bond orders larger than 0.100000
B(  0-C ,  1-C ) :   0.7321 B(  0-C , 18-H ) :   0.9860 B(  0-C , 19-H ) :   0.9797
B(  0-C , 20-H ) :   0.9785 B(  1-C ,  2-C ) :   0.9468 B(  1-C , 17-S ) :   0.9652
B(  2-C ,  3-N ) :   1.0924 B(  2-C , 17-S ) :   0.1941 B(  2-C , 21-H ) :   1.0206
B(  3-N ,  4-C ) :   1.0857 B(  3-N ,  5-N ) :  -0.1914 B(  3-N ,  6-N ) :   0.1130
B(  3-N ,  7-C ) :   0.1057 B(  4-C ,  5-N ) :   1.0104 B(  4-C , 17-S ) :   0.9622
B(  5-N ,  6-N ) :   0.4435 B(  5-N ,  7-C ) :   0.2722 B(  5-N ,  8-C ) :  -0.1139
B(  6-N ,  7-C ) :   0.6457 B(  6-N ,  8-C ) :  -0.2342 B(  7-C ,  8-C ) :   1.2993
B(  7-C ,  9-C ) :   0.1799 B(  7-C , 10-C ) :  -0.1715 B(  7-C , 16-S ) :   0.7899
B(  8-C ,  9-C ) :   1.0619 B(  8-C , 16-S ) :   0.1010 B(  8-C , 22-H ) :   0.9896
B(  9-C , 10-C ) :   0.5563 B(  9-C , 16-S ) :   0.1947 B(  9-C , 23-H ) :   1.0151
B( 10-C , 11-C ) :   0.5198 B( 10-C , 13-C ) :   0.1101 B( 10-C , 16-S ) :   0.8446
B( 11-C , 12-C ) :   0.8640 B( 11-C , 13-C ) :  -0.1932 B( 11-C , 15-S ) :   0.5309
B( 12-C , 13-C ) :   1.2176 B( 12-C , 14-C ) :   0.1469 B( 12-C , 15-S ) :   0.1919
B( 12-C , 24-H ) :   1.0196 B( 13-C , 14-C ) :   1.3922 B( 13-C , 15-S ) :   0.1340
B( 13-C , 25-H ) :   0.9087 B( 14-C , 15-S ) :   1.1080 B( 14-C , 26-H ) :   0.9781

-----------------------------------------------------------------------------
         ABSORPTION SPECTRUM VIA TRANSITION ELECTRIC DIPOLE MOMENTS
-----------------------------------------------------------------------------
State   Energy    Wavelength  fosc         T2        TX        TY        TZ
        (cm-1)      (nm)                 (au**2)    (au)      (au)      (au)
-----------------------------------------------------------------------------
   1   20980.8    476.6   1.725806095  27.07981   5.20146  -0.15471  -0.02582
   2   22177.6    450.9   0.039273944   0.58300  -0.76255   0.03639  -0.01402
   3   28846.3    346.7   0.034120968   0.38941  -0.54944   0.21059   0.20780
   4   31092.9    321.6   0.005828905   0.06172   0.24685  -0.02201   0.01727
   5   32574.3    307.0   0.009667575   0.09771  -0.28360   0.12649   0.03574
   6   33685.0    296.9   0.001359027   0.01328   0.06879   0.09174   0.01161
   7   33903.3    295.0   0.232555856   2.25819   1.03983   0.79891   0.73396
   8   36148.0    276.6   0.047123291   0.42917   0.65064  -0.05848  -0.04918
   9   38307.8    261.0   0.027801767   0.23892  -0.45345   0.14398   0.11216
  10   40674.0    245.9   0.000494069   0.00400  -0.00312  -0.04130   0.04778

FINAL SINGLE POINT ENERGY     -1820.517603444941

DIPOLE MOMENT
-------------
                                X             Y             Z
Electronic contribution:      8.43129      -1.84959      -1.38762
Nuclear contribution   :     -7.28756       2.70952       2.21837
                        -----------------------------------------
Total Dipole Moment    :      1.14373       0.85993       0.83075
                        -----------------------------------------
Magnitude (a.u.)       :      1.65461
Magnitude (Debye)      :      4.20569

Rotational constants in cm-1:     0.050093     0.003423     0.003208
Rotational constants in MHz :  1501.756064   102.608672    96.161293

                             ****ORCA TERMINATED NORMALLY****
TOTAL RUN TIME: 0 days 4 hours 3 minutes 13 seconds 662 msec
