                         Program Version 5.0.2 -  RELEASE  -
|  1> ! wb97x-d3 aug-cc-PVTZ RIJCOSX Opt
|  2> %maxcore 4000
|  3> %basis
|  4>  AuxJ "aug-cc-PVTZ/JK"
|  5>  AuxC "aug-cc-PVTZ/C"
|  6>  newGTO H "cc-PVTZ" end
|  7>  newAuxJGTO H "cc-PVTZ/JK" end
|  8>  newAuxCGTO H "cc-PVTZ/C" end
|  9> end
| 10> %cpcm
| 11>  SMD true
| 12>  SMDsolvent "dimethylsulfoxide"
| 13> end
| 14> %pal nprocs 4 end
| 15> * xyz 0 1
| 16> C         -6.40460        1.20310        0.64210
| 17> C         -5.24970        0.46740        0.07220
| 18> C         -5.28390       -0.60600       -0.78920
| 19> N         -4.10750       -1.10170       -1.17240
| 20> C         -3.10180       -0.47260       -0.65330
| 21> N         -1.84160       -0.77160       -0.88030
| 22> N         -0.94070       -0.06400       -0.28470
| 23> C          0.33600       -0.36430       -0.52760
| 24> C          0.92970       -1.31870       -1.34880
| 25> C          2.31270       -1.28290       -1.30880
| 26> C          2.81780       -0.30790       -0.46080
| 27> C          4.18450       -0.01940       -0.19830
| 28> C          4.70860        0.93560        0.64110
| 29> C          6.11230        0.94260        0.65870
| 30> C          6.65350        0.00020       -0.16130
| 31> S          5.45820       -0.92080       -0.97660
| 32> S          1.54470        0.58790        0.30300
| 33> S         -3.62590        0.89480        0.43750
| 34> H         -7.33680        0.75810        0.30210
| 35> H         -6.37820        2.24890        0.33630
| 36> H         -6.37380        1.17710        1.73100
| 37> H         -6.18500       -1.05910       -1.16430
| 38> H          0.33790       -1.99490       -1.93880
| 39> H          2.95460       -1.93830       -1.87160
| 40> H          4.09050        1.60000        1.21750
| 41> H          6.69910        1.61820        1.25460
| 42> H          7.68910       -0.21160       -0.33850
| 43> *
| 44>
| 45>
| 46> $new_job
| 47> ! wb97x-d3 aug-cc-PVTZ RIJCOSX SP
| 48> %maxcore 4000
| 49> %basis
| 50>  AuxJ "aug-cc-PVTZ/JK"
| 51>  AuxC "aug-cc-PVTZ/C"
| 52>  newGTO H "cc-PVTZ" end
| 53>  newAuxJGTO H "cc-PVTZ/JK" end
| 54>  newAuxCGTO H "cc-PVTZ/C" end
| 55> end
| 56> %cpcm
| 57>  SMD true
| 58>  SMDsolvent "dimethylsulfoxide"
| 59> end
| 60> %pal nprocs 4 end
| 61> %tddft
| 62>  nroots 10
| 63>  maxdim 7
| 64> end
| 65> * xyzfile 0 1
| 66>
| 67>                          ****END OF INPUT****
 Total Charge           Charge          ....    0
 Multiplicity           Mult            ....    1
 Number of Electrons    NEL             ....  150
Dispersion correction           -0.009275679
FINAL SINGLE POINT ENERGY     -1821.536646898552
Dispersion correction            ... done
Dispersion correction           -0.009264180
FINAL SINGLE POINT ENERGY     -1821.544658738694
Dispersion correction            ... done
Dispersion correction           -0.009246836
FINAL SINGLE POINT ENERGY     -1821.548067281746
Dispersion correction            ... done
FINAL SINGLE POINT ENERGY     -1821.548354116495
FINAL SINGLE POINT ENERGY     -1821.548319452075
FINAL SINGLE POINT ENERGY     -1821.548412450629
Dispersion correction           -0.009247037
FINAL SINGLE POINT ENERGY     -1821.548410161581
Dispersion correction            ... done
Dispersion correction           -0.009247178
FINAL SINGLE POINT ENERGY     -1821.548403306597
Dispersion correction            ... done
                    ***********************HURRAY********************
Dispersion correction           -0.009247325
FINAL SINGLE POINT ENERGY     -1821.548398517141

CARTESIAN COORDINATES (ANGSTROEM)
---------------------------------
  C     -6.386129    1.204674    0.714222
  C     -5.259904    0.469629    0.074651
  C     -5.317802   -0.549917   -0.822536
  N     -4.120560   -1.053523   -1.248439
  C     -3.135575   -0.428356   -0.686206
  N     -1.815446   -0.777108   -0.961202
  N     -0.975841   -0.081121   -0.357654
  C      0.346793   -0.403466   -0.591524
  C      0.927140   -1.383353   -1.355043
  C      2.328472   -1.343240   -1.290314
  C      2.812933   -0.340160   -0.483031
  C      4.198155   -0.018009   -0.191668
  C      4.692124    0.966059    0.618828
  C      6.108611    0.990560    0.664508
  C      6.672278    0.027116   -0.110340
  S      5.489400   -0.920375   -0.904909
  S      1.528882    0.567701    0.210420
  S     -3.606710    0.830437    0.413688
  H     -7.332548    0.801083    0.357187
  H     -6.354310    2.267932    0.472815
  H     -6.358055    1.107865    1.800192
  H     -6.238228   -0.969643   -1.203431
  H      0.361395   -2.098290   -1.933730
  H      2.966038   -2.033258   -1.825661
  H      4.067150    1.653719    1.173055
  H      6.681550    1.694628    1.250596
  H      7.719885   -0.181482   -0.263672

 Multiplicity           Mult            ....    1
 Number of Electrons    NEL             ....  150
 Basis Dimension        Dim             ....  966

ORBITAL ENERGIES
----------------

  NO   OCC          E(Eh)            E(eV)
   0   2.0000     -89.024928     -2422.4915
   1   2.0000     -89.021295     -2422.3926
   2   2.0000     -89.016404     -2422.2595
   3   2.0000     -14.503376      -394.6569
   4   2.0000     -14.493782      -394.3959
   5   2.0000     -14.439719      -392.9247
   6   2.0000     -10.373977      -282.2903
   7   2.0000     -10.347001      -281.5562
   8   2.0000     -10.344727      -281.4943
   9   2.0000     -10.330786      -281.1150
  10   2.0000     -10.328431      -281.0509
  11   2.0000     -10.312807      -280.6258
  12   2.0000     -10.308949      -280.5208
  13   2.0000     -10.302659      -280.3496
  14   2.0000     -10.297052      -280.1970
  15   2.0000     -10.292167      -280.0641
  16   2.0000     -10.287514      -279.9375
  17   2.0000     -10.279500      -279.7194
  18   2.0000      -8.098999      -220.3850
  19   2.0000      -8.095095      -220.2787
  20   2.0000      -8.090179      -220.1450
  21   2.0000      -6.053078      -164.7126
  22   2.0000      -6.049333      -164.6107
  23   2.0000      -6.049047      -164.6029
  24   2.0000      -6.046579      -164.5358
  25   2.0000      -6.045381      -164.5032
  26   2.0000      -6.044356      -164.4753
  27   2.0000      -6.042876      -164.4350
  28   2.0000      -6.040395      -164.3675
  29   2.0000      -6.037886      -164.2992
  30   2.0000      -1.190992       -32.4085
  31   2.0000      -1.099086       -29.9077
  32   2.0000      -1.035239       -28.1703
  33   2.0000      -1.010116       -27.4866
  34   2.0000      -0.945108       -25.7177
  35   2.0000      -0.933046       -25.3895
  36   2.0000      -0.885796       -24.1037
  37   2.0000      -0.874927       -23.8080
  38   2.0000      -0.858243       -23.3540
  39   2.0000      -0.849643       -23.1200
  40   2.0000      -0.817751       -22.2521
  41   2.0000      -0.784689       -21.3525
  42   2.0000      -0.712625       -19.3915
  43   2.0000      -0.709754       -19.3134
  44   2.0000      -0.675400       -18.3786
  45   2.0000      -0.669611       -18.2210
  46   2.0000      -0.647265       -17.6130
  47   2.0000      -0.636242       -17.3130
  48   2.0000      -0.632130       -17.2011
  49   2.0000      -0.593845       -16.1593
  50   2.0000      -0.577748       -15.7213
  51   2.0000      -0.575370       -15.6566
  52   2.0000      -0.556486       -15.1427
  53   2.0000      -0.540417       -14.7055
  54   2.0000      -0.537001       -14.6125
  55   2.0000      -0.521826       -14.1996
  56   2.0000      -0.515067       -14.0157
  57   2.0000      -0.504642       -13.7320
  58   2.0000      -0.502353       -13.6697
  59   2.0000      -0.499800       -13.6002
  60   2.0000      -0.496158       -13.5011
  61   2.0000      -0.483264       -13.1503
  62   2.0000      -0.473404       -12.8820
  63   2.0000      -0.472620       -12.8607
  64   2.0000      -0.455173       -12.3859
  65   2.0000      -0.447490       -12.1768
  66   2.0000      -0.436575       -11.8798
  67   2.0000      -0.391971       -10.6661
  68   2.0000      -0.386657       -10.5215
  69   2.0000      -0.378575       -10.3015
  70   2.0000      -0.360723        -9.8158
  71   2.0000      -0.355321        -9.6688
  72   2.0000      -0.348224        -9.4756
  73   2.0000      -0.334476        -9.1016
  74   2.0000      -0.286277        -7.7900
  75   0.0000      -0.046781        -1.2730
  76   0.0000       0.021051         0.5728
  77   0.0000       0.048572         1.3217
  78   0.0000       0.050190         1.3657
  79   0.0000       0.056873         1.5476

MULLIKEN ATOMIC CHARGES
-----------------------
   0 C :   -0.610671
   1 C :    0.743171
   2 C :   -1.030657
   3 N :   -0.319293
   4 C :    0.199890
   5 N :   -0.374694
   6 N :    0.079066
   7 C :   -0.012739
   8 C :   -0.387785
   9 C :   -1.111615
  10 C :    1.324908
  11 C :    1.044375
  12 C :   -0.968107
  13 C :   -0.455314
  14 C :   -0.425763
  15 S :    0.170069
  16 S :    0.065059
  17 S :    0.271469
  18 H :    0.170118
  19 H :    0.194489
  20 H :    0.193945
  21 H :    0.225182
  22 H :    0.209258
  23 H :    0.170230
  24 H :    0.175671
  25 H :    0.258884
  26 H :    0.200852
Sum of atomic charges:   -0.0000000

LOEWDIN ATOMIC CHARGES
----------------------
   0 C :   -0.021049
   1 C :   -0.854165
   2 C :   -0.286289
   3 N :    0.173397
   4 C :   -0.959130
   5 N :    0.105754
   6 N :    0.056141
   7 C :   -0.814557
   8 C :   -0.092841
   9 C :   -0.121022
  10 C :   -0.713295
  11 C :   -0.738323
  12 C :   -0.163939
  13 C :   -0.228564
  14 C :   -0.460431
  15 S :    1.162380
  16 S :    1.287261
  17 S :    1.244543
  18 H :    0.133167
  19 H :    0.124007
  20 H :    0.124059
  21 H :    0.174443
  22 H :    0.188762
  23 H :    0.189916
  24 H :    0.186646
  25 H :    0.164495
  26 H :    0.138635

  Mayer bond orders larger than 0.100000
B(  0-C ,  1-C ) :   0.5776 B(  0-C , 18-H ) :   1.0095 B(  0-C , 19-H ) :   0.9921
B(  0-C , 20-H ) :   0.9909 B(  1-C ,  2-C ) :   0.6231 B(  1-C , 17-S ) :   0.9600
B(  2-C ,  3-N ) :   0.8113 B(  2-C , 17-S ) :   0.2448 B(  2-C , 21-H ) :   1.0948
B(  3-N ,  4-C ) :   1.1676 B(  3-N ,  5-N ) :  -0.1649 B(  3-N ,  6-N ) :   0.1042
B(  3-N ,  7-C ) :   0.1140 B(  4-C ,  5-N ) :   0.9357 B(  4-C , 17-S ) :   0.9673
B(  5-N ,  6-N ) :   0.7001 B(  5-N ,  7-C ) :   0.3389 B(  6-N ,  7-C ) :   0.5319
B(  6-N ,  8-C ) :  -0.3227 B(  7-C ,  8-C ) :   1.2282 B(  7-C ,  9-C ) :   0.2026
B(  7-C , 10-C ) :  -0.2128 B(  7-C , 16-S ) :   0.8767 B(  8-C ,  9-C ) :   1.0949
B(  8-C , 10-C ) :  -0.1114 B(  8-C , 22-H ) :   1.0939 B(  9-C , 11-C ) :   0.2093
B(  9-C , 16-S ) :   0.2367 B(  9-C , 23-H ) :   1.1252 B( 10-C , 11-C ) :   0.4159
B( 10-C , 13-C ) :   0.1085 B( 10-C , 16-S ) :   0.7009 B( 10-C , 23-H ) :  -0.1997
B( 11-C , 12-C ) :   0.5766 B( 11-C , 13-C ) :  -0.2142 B( 11-C , 15-S ) :   0.4324
B( 11-C , 24-H ) :  -0.1019 B( 12-C , 13-C ) :   1.1400 B( 12-C , 14-C ) :   0.1346
B( 12-C , 15-S ) :   0.2076 B( 12-C , 24-H ) :   1.0870 B( 13-C , 14-C ) :   1.2940
B( 13-C , 15-S ) :   0.1071 B( 13-C , 25-H ) :   0.9635 B( 14-C , 15-S ) :   1.0556
B( 14-C , 26-H ) :   1.0405

-----------------------------------------------------------------------------
         ABSORPTION SPECTRUM VIA TRANSITION ELECTRIC DIPOLE MOMENTS
-----------------------------------------------------------------------------
State   Energy    Wavelength  fosc         T2        TX        TY        TZ
        (cm-1)      (nm)                 (au**2)    (au)      (au)      (au)
-----------------------------------------------------------------------------
   1   23875.8    418.8   0.044875988   0.61877   0.78627  -0.01254  -0.02007
   2   24719.8    404.5   1.355170842  18.04779   4.24633  -0.12587  -0.02580
   3   35149.5    284.5   0.047884898   0.44849  -0.26277  -0.45975  -0.40997
   4   37480.6    266.8   0.082241555   0.72237   0.28391   0.61713   0.51080
   5   39355.6    254.1   0.002055416   0.01719  -0.10375  -0.01278  -0.07916
   6   39547.5    252.9   0.059728849   0.49721   0.60144   0.29495   0.22020
   7   42178.5    237.1   0.135380423   1.05667   0.22626   0.77535   0.63586
   8   42511.1    235.2   0.098293264   0.76120  -0.86003  -0.09962  -0.10781
   9   46559.0    214.8   0.000397664   0.00281  -0.02785   0.00369   0.04498
  10   46783.6    213.8   0.014108130   0.09928  -0.09393   0.22400   0.20069

Dispersion correction           -0.009247325
FINAL SINGLE POINT ENERGY     -1821.439612766108

DIPOLE MOMENT
-------------
                                X             Y             Z
Electronic contribution:      8.00613      -1.76222      -1.51576
Nuclear contribution   :     -7.33404       2.62294       2.32258
                        -----------------------------------------
Total Dipole Moment    :      0.67209       0.86071       0.80681
                        -----------------------------------------
Magnitude (a.u.)       :      1.35775
Magnitude (Debye)      :      3.45112

Rotational constants in cm-1:     0.050455     0.003411     0.003197
Rotational constants in MHz :  1512.590689   102.245413    95.834765

                             ****ORCA TERMINATED NORMALLY****
TOTAL RUN TIME: 0 days 5 hours 11 minutes 54 seconds 141 msec
