                         Program Version 5.0.2 -  RELEASE  -
|  1> ! x3lyp aug-cc-PVTZ RIJCOSX Opt
|  2> %maxcore 4000
|  3> %basis
|  4>  AuxJ "aug-cc-PVTZ/JK"
|  5>  AuxC "aug-cc-PVTZ/C"
|  6>  newGTO H "cc-PVTZ" end
|  7>  newAuxJGTO H "cc-PVTZ/JK" end
|  8>  newAuxCGTO H "cc-PVTZ/C" end
|  9> end
| 10> %cpcm
| 11>  SMD true
| 12>  SMDsolvent "dimethylsulfoxide"
| 13> end
| 14> %pal nprocs 4 end
| 15> * xyz 0 1
| 16> C         -6.40460        1.20310        0.64210
| 17> C         -5.24970        0.46740        0.07220
| 18> C         -5.28390       -0.60600       -0.78920
| 19> N         -4.10750       -1.10170       -1.17240
| 20> C         -3.10180       -0.47260       -0.65330
| 21> N         -1.84160       -0.77160       -0.88030
| 22> N         -0.94070       -0.06400       -0.28470
| 23> C          0.33600       -0.36430       -0.52760
| 24> C          0.92970       -1.31870       -1.34880
| 25> C          2.31270       -1.28290       -1.30880
| 26> C          2.81780       -0.30790       -0.46080
| 27> C          4.18450       -0.01940       -0.19830
| 28> C          4.70860        0.93560        0.64110
| 29> C          6.11230        0.94260        0.65870
| 30> C          6.65350        0.00020       -0.16130
| 31> S          5.45820       -0.92080       -0.97660
| 32> S          1.54470        0.58790        0.30300
| 33> S         -3.62590        0.89480        0.43750
| 34> H         -7.33680        0.75810        0.30210
| 35> H         -6.37820        2.24890        0.33630
| 36> H         -6.37380        1.17710        1.73100
| 37> H         -6.18500       -1.05910       -1.16430
| 38> H          0.33790       -1.99490       -1.93880
| 39> H          2.95460       -1.93830       -1.87160
| 40> H          4.09050        1.60000        1.21750
| 41> H          6.69910        1.61820        1.25460
| 42> H          7.68910       -0.21160       -0.33850
| 43> *
| 44>
| 45>
| 46> $new_job
| 47> ! x3lyp aug-cc-PVTZ RIJCOSX SP
| 48> %maxcore 4000
| 49> %basis
| 50>  AuxJ "aug-cc-PVTZ/JK"
| 51>  AuxC "aug-cc-PVTZ/C"
| 52>  newGTO H "cc-PVTZ" end
| 53>  newAuxJGTO H "cc-PVTZ/JK" end
| 54>  newAuxCGTO H "cc-PVTZ/C" end
| 55> end
| 56> %cpcm
| 57>  SMD true
| 58>  SMDsolvent "dimethylsulfoxide"
| 59> end
| 60> %pal nprocs 4 end
| 61> %tddft
| 62>  nroots 10
| 63>  maxdim 7
| 64> end
| 65> * xyzfile 0 1
| 66>
| 67>                          ****END OF INPUT****
 Total Charge           Charge          ....    0
 Multiplicity           Mult            ....    1
 Number of Electrons    NEL             ....  150
FINAL SINGLE POINT ENERGY     -1820.987636061729
FINAL SINGLE POINT ENERGY     -1820.991411269687
FINAL SINGLE POINT ENERGY     -1820.992740659209
FINAL SINGLE POINT ENERGY     -1820.992991035687
FINAL SINGLE POINT ENERGY     -1820.993060523801
FINAL SINGLE POINT ENERGY     -1820.993093096826
FINAL SINGLE POINT ENERGY     -1820.993085498944
FINAL SINGLE POINT ENERGY     -1820.993085550101
                    ***********************HURRAY********************
FINAL SINGLE POINT ENERGY     -1820.993085337529

CARTESIAN COORDINATES (ANGSTROEM)
---------------------------------
  C     -6.418106    1.179985    0.733070
  C     -5.284497    0.466064    0.085531
  C     -5.332301   -0.548924   -0.828711
  N     -4.138991   -1.040934   -1.265012
  C     -3.135385   -0.420842   -0.705012
  N     -1.835266   -0.757185   -0.982940
  N     -0.965468   -0.059853   -0.376726
  C      0.336462   -0.379276   -0.607749
  C      0.938634   -1.364539   -1.372723
  C      2.331140   -1.329557   -1.298763
  C      2.831255   -0.323722   -0.482057
  C      4.205933   -0.020858   -0.189208
  C      4.721086    0.992304    0.587413
  C      6.133203    0.989195    0.656576
  C      6.696536   -0.022984   -0.064708
  S      5.505527   -0.993466   -0.841979
  S      1.534473    0.597185    0.212542
  S     -3.622404    0.844012    0.427720
  H     -7.361904    0.768702    0.376500
  H     -6.402153    2.247902    0.506075
  H     -6.388313    1.076831    1.819653
  H     -6.251950   -0.970758   -1.208248
  H      0.379332   -2.079459   -1.956127
  H      2.967347   -2.023089   -1.829693
  H      4.105474    1.721991    1.094410
  H      6.708536    1.710150    1.218367
  H      7.741499   -0.258775   -0.187400

 Multiplicity           Mult            ....    1
 Number of Electrons    NEL             ....  150
 Basis Dimension        Dim             ....  966

ORBITAL ENERGIES
----------------

  NO   OCC          E(Eh)            E(eV)
   0   2.0000     -89.000216     -2421.8190
   1   2.0000     -88.994709     -2421.6692
   2   2.0000     -88.993725     -2421.6424
   3   2.0000     -14.409947      -392.1146
   4   2.0000     -14.400670      -391.8621
   5   2.0000     -14.355760      -390.6401
   6   2.0000     -10.285943      -279.8947
   7   2.0000     -10.263829      -279.2930
   8   2.0000     -10.260919      -279.2138
   9   2.0000     -10.247067      -278.8369
  10   2.0000     -10.242474      -278.7119
  11   2.0000     -10.230595      -278.3886
  12   2.0000     -10.226023      -278.2642
  13   2.0000     -10.218394      -278.0566
  14   2.0000     -10.215683      -277.9829
  15   2.0000     -10.210423      -277.8397
  16   2.0000     -10.205848      -277.7152
  17   2.0000     -10.196018      -277.4478
  18   2.0000      -8.004931      -217.8252
  19   2.0000      -7.999100      -217.6666
  20   2.0000      -7.998052      -217.6381
  21   2.0000      -5.962258      -162.2413
  22   2.0000      -5.958881      -162.1494
  23   2.0000      -5.956482      -162.0841
  24   2.0000      -5.956149      -162.0751
  25   2.0000      -5.955186      -162.0489
  26   2.0000      -5.952893      -161.9865
  27   2.0000      -5.951958      -161.9610
  28   2.0000      -5.950540      -161.9224
  29   2.0000      -5.949566      -161.8959
  30   2.0000      -1.062359       -28.9083
  31   2.0000      -0.979031       -26.6408
  32   2.0000      -0.916563       -24.9409
  33   2.0000      -0.892864       -24.2961
  34   2.0000      -0.832323       -22.6487
  35   2.0000      -0.819239       -22.2926
  36   2.0000      -0.774651       -21.0793
  37   2.0000      -0.761847       -20.7309
  38   2.0000      -0.748049       -20.3554
  39   2.0000      -0.738534       -20.0965
  40   2.0000      -0.707125       -19.2419
  41   2.0000      -0.677818       -18.4444
  42   2.0000      -0.609706       -16.5909
  43   2.0000      -0.606555       -16.5052
  44   2.0000      -0.570866       -15.5341
  45   2.0000      -0.565694       -15.3933
  46   2.0000      -0.545751       -14.8506
  47   2.0000      -0.534661       -14.5489
  48   2.0000      -0.526731       -14.3331
  49   2.0000      -0.494790       -13.4639
  50   2.0000      -0.472195       -12.8491
  51   2.0000      -0.466696       -12.6994
  52   2.0000      -0.460279       -12.5248
  53   2.0000      -0.441465       -12.0129
  54   2.0000      -0.435538       -11.8516
  55   2.0000      -0.422969       -11.5096
  56   2.0000      -0.418503       -11.3880
  57   2.0000      -0.413228       -11.2445
  58   2.0000      -0.408504       -11.1160
  59   2.0000      -0.406854       -11.0711
  60   2.0000      -0.398105       -10.8330
  61   2.0000      -0.389941       -10.6108
  62   2.0000      -0.381683       -10.3861
  63   2.0000      -0.370935       -10.0936
  64   2.0000      -0.364174        -9.9097
  65   2.0000      -0.355938        -9.6856
  66   2.0000      -0.348504        -9.4833
  67   2.0000      -0.298221        -8.1150
  68   2.0000      -0.296619        -8.0714
  69   2.0000      -0.289596        -7.8803
  70   2.0000      -0.277083        -7.5398
  71   2.0000      -0.265493        -7.2244
  72   2.0000      -0.259009        -7.0480
  73   2.0000      -0.251738        -6.8501
  74   2.0000      -0.208332        -5.6690
  75   0.0000      -0.111693        -3.0393
  76   0.0000      -0.049468        -1.3461
  77   0.0000      -0.009493        -0.2583
  78   0.0000      -0.003457        -0.0941
  79   0.0000       0.000290         0.0079

MULLIKEN ATOMIC CHARGES
-----------------------
   0 C :   -0.607628
   1 C :    0.703985
   2 C :   -0.872284
   3 N :   -0.387881
   4 C :    0.312335
   5 N :   -0.347553
   6 N :   -0.102555
   7 C :    0.089500
   8 C :   -0.207462
   9 C :   -0.941660
  10 C :    1.143819
  11 C :    0.971132
  12 C :   -0.839628
  13 C :   -0.385831
  14 C :   -0.408893
  15 S :    0.117590
  16 S :   -0.014059
  17 S :    0.201317
  18 H :    0.160527
  19 H :    0.173088
  20 H :    0.172654
  21 H :    0.193330
  22 H :    0.184546
  23 H :    0.139433
  24 H :    0.143012
  25 H :    0.219337
  26 H :    0.189827
Sum of atomic charges:    0.0000000

LOEWDIN ATOMIC CHARGES
----------------------
   0 C :   -0.030623
   1 C :   -0.846543
   2 C :   -0.291550
   3 N :    0.168796
   4 C :   -0.949097
   5 N :    0.091553
   6 N :    0.045147
   7 C :   -0.804584
   8 C :   -0.090654
   9 C :   -0.119829
  10 C :   -0.698467
  11 C :   -0.717547
  12 C :   -0.158818
  13 C :   -0.225343
  14 C :   -0.451225
  15 S :    1.159448
  16 S :    1.275795
  17 S :    1.223311
  18 H :    0.133710
  19 H :    0.125198
  20 H :    0.125393
  21 H :    0.173480
  22 H :    0.186760
  23 H :    0.189002
  24 H :    0.185280
  25 H :    0.164771
  26 H :    0.136635

  Mayer bond orders larger than 0.100000
B(  0-C ,  1-C ) :   0.6333 B(  0-C , 18-H ) :   1.0020 B(  0-C , 19-H ) :   0.9924
B(  0-C , 20-H ) :   0.9914 B(  1-C ,  2-C ) :   0.8218 B(  1-C , 17-S ) :   1.0063
B(  2-C ,  3-N ) :   0.9922 B(  2-C , 17-S ) :   0.1968 B(  2-C , 21-H ) :   1.0839
B(  3-N ,  4-C ) :   1.0727 B(  3-N ,  5-N ) :  -0.2159 B(  3-N ,  6-N ) :   0.1142
B(  3-N ,  7-C ) :   0.1014 B(  4-C ,  5-N ) :   0.9689 B(  4-C , 17-S ) :   0.9565
B(  5-N ,  6-N ) :   0.3708 B(  5-N ,  7-C ) :   0.3337 B(  5-N ,  8-C ) :  -0.1163
B(  6-N ,  7-C ) :   0.6073 B(  6-N ,  8-C ) :  -0.2587 B(  7-C ,  8-C ) :   1.2261
B(  7-C ,  9-C ) :   0.2323 B(  7-C , 10-C ) :  -0.1971 B(  7-C , 16-S ) :   0.7964
B(  8-C ,  9-C ) :   0.9394 B(  8-C , 16-S ) :   0.1187 B(  8-C , 22-H ) :   1.0568
B(  9-C , 10-C ) :   0.3212 B(  9-C , 11-C ) :   0.1856 B(  9-C , 16-S ) :   0.2128
B(  9-C , 23-H ) :   1.0977 B( 10-C , 11-C ) :   0.4066 B( 10-C , 13-C ) :   0.1155
B( 10-C , 15-S ) :   0.1409 B( 10-C , 16-S ) :   0.7728 B( 10-C , 23-H ) :  -0.1223
B( 11-C , 12-C ) :   0.6985 B( 11-C , 13-C ) :  -0.1964 B( 11-C , 15-S ) :   0.4328
B( 12-C , 13-C ) :   1.1598 B( 12-C , 14-C ) :   0.1652 B( 12-C , 15-S ) :   0.2166
B( 12-C , 24-H ) :   1.0691 B( 13-C , 14-C ) :   1.3330 B( 13-C , 15-S ) :   0.1238
B( 13-C , 25-H ) :   0.9663 B( 14-C , 15-S ) :   1.1061 B( 14-C , 26-H ) :   1.0040

-----------------------------------------------------------------------------
         ABSORPTION SPECTRUM VIA TRANSITION ELECTRIC DIPOLE MOMENTS
-----------------------------------------------------------------------------
State   Energy    Wavelength  fosc         T2        TX        TY        TZ
        (cm-1)      (nm)                 (au**2)    (au)      (au)      (au)
-----------------------------------------------------------------------------
   1   20328.5    491.9   1.770317046  28.66958   5.35228  -0.14923  -0.02061
   2   21776.6    459.2   0.024254039   0.36666  -0.60453   0.03002  -0.01751
   3   27638.8    361.8   0.034533611   0.41134  -0.58514   0.18872   0.18256
   4   29651.4    337.3   0.006826844   0.07580  -0.27315   0.03372   0.00714
   5   31295.0    319.5   0.005699682   0.05996   0.14918  -0.17005  -0.09375
   6   32570.5    307.0   0.002942078   0.02974  -0.11772  -0.12045  -0.03702
   7   32722.2    305.6   0.228627057   2.30017   1.09893   0.77361   0.70288
   8   34726.4    288.0   0.039869638   0.37797  -0.59377   0.12331   0.10098
   9   36839.8    271.4   0.030913420   0.27625  -0.48276   0.16536   0.12591
  10   39153.9    255.4   0.000683864   0.00575   0.01637   0.04153  -0.06130

FINAL SINGLE POINT ENERGY     -1820.900461881898

DIPOLE MOMENT
-------------
                                X             Y             Z
Electronic contribution:      8.64484      -1.72695      -1.44517
Nuclear contribution   :     -7.35507       2.57678       2.28546
                        -----------------------------------------
Total Dipole Moment    :      1.28977       0.84983       0.84029
                        -----------------------------------------
Magnitude (a.u.)       :      1.75835
Magnitude (Debye)      :      4.46938

Rotational constants in cm-1:     0.049971     0.003383     0.003172
Rotational constants in MHz :  1498.107835   101.431662    95.085874

                             ****ORCA TERMINATED NORMALLY****
TOTAL RUN TIME: 0 days 2 hours 11 minutes 26 seconds 217 msec
