                         Program Version 5.0.2 -  RELEASE  -
|  1> ! b3lyp aug-cc-PVTZ RIJCOSX Opt
|  2> %maxcore 4000
|  3> %basis
|  4>  AuxJ "aug-cc-PVTZ/JK"
|  5>  AuxC "aug-cc-PVTZ/C"
|  6>  newGTO H "cc-PVTZ" end
|  7>  newAuxJGTO H "cc-PVTZ/JK" end
|  8>  newAuxCGTO H "cc-PVTZ/C" end
|  9> end
| 10> %cpcm
| 11>  SMD true
| 12>  SMDsolvent "ethanol"
| 13> end
| 14> %pal nprocs 4 end
| 15> * xyz 0 1
| 16> C         -4.68160        0.30280       -1.06730
| 17> C         -4.55820        0.00650        0.28040
| 18> C         -3.30890       -0.15020        0.84950
| 19> C         -2.15940       -0.01140        0.07290
| 20> C         -0.82380       -0.16900        0.63620
| 21> C         -0.50840       -0.46110        1.94080
| 22> S          1.18340       -0.55520        2.16840
| 23> C          1.37840       -0.18700        0.45350
| 24> C          2.68340       -0.08810       -0.15860
| 25> C          2.79850        0.20500       -1.51980
| 26> C          4.06540        0.29120       -2.06860
| 27> N          5.17790        0.11120       -1.37550
| 28> C          5.06900       -0.16630       -0.08730
| 29> C          3.85700       -0.27780        0.57150
| 30> N          0.26230       -0.02340       -0.16410
| 31> C         -2.29340        0.28700       -1.28310
| 32> C         -3.54470        0.44250       -1.84640
| 33> H         -5.66040        0.42420       -1.50710
| 34> H         -5.44200       -0.10330        0.89190
| 35> H         -3.22970       -0.38090        1.90090
| 36> H         -1.16210       -0.62500        2.77260
| 37> H          1.91090        0.35700       -2.11140
| 38> H          4.20260        0.51600       -3.11820
| 39> H          6.00300       -0.30580        0.44110
| 40> H          3.81790       -0.50630        1.62610
| 41> H         -1.40130        0.39350       -1.88020
| 42> H         -3.63550        0.67350       -2.89770
| 43> *
| 44>
| 45>
| 46> $new_job
| 47> ! b3lyp aug-cc-PVTZ RIJCOSX SP
| 48> %maxcore 4000
| 49> %basis
| 50>  AuxJ "aug-cc-PVTZ/JK"
| 51>  AuxC "aug-cc-PVTZ/C"
| 52>  newGTO H "cc-PVTZ" end
| 53>  newAuxJGTO H "cc-PVTZ/JK" end
| 54>  newAuxCGTO H "cc-PVTZ/C" end
| 55> end
| 56> %cpcm
| 57>  SMD true
| 58>  SMDsolvent "ethanol"
| 59> end
| 60> %pal nprocs 4 end
| 61> %tddft
| 62>  nroots 10
| 63>  maxdim 7
| 64> end
| 65> * xyzfile 0 1
| 66>
| 67>                          ****END OF INPUT****
 Total Charge           Charge          ....    0
 Multiplicity           Mult            ....    1
 Number of Electrons    NEL             ....  124
FINAL SINGLE POINT ENERGY     -1047.022617306198
FINAL SINGLE POINT ENERGY     -1047.024824619782
FINAL SINGLE POINT ENERGY     -1047.025048006383
FINAL SINGLE POINT ENERGY     -1047.025114253345
FINAL SINGLE POINT ENERGY     -1047.025125610718
FINAL SINGLE POINT ENERGY     -1047.025138221739
FINAL SINGLE POINT ENERGY     -1047.025144624902
FINAL SINGLE POINT ENERGY     -1047.025119919773
FINAL SINGLE POINT ENERGY     -1047.025165378111
FINAL SINGLE POINT ENERGY     -1047.025175980747
FINAL SINGLE POINT ENERGY     -1047.025185076061
FINAL SINGLE POINT ENERGY     -1047.025188647308
FINAL SINGLE POINT ENERGY     -1047.025187061324
FINAL SINGLE POINT ENERGY     -1047.025192711139
FINAL SINGLE POINT ENERGY     -1047.025193386177
FINAL SINGLE POINT ENERGY     -1047.025190583661
FINAL SINGLE POINT ENERGY     -1047.025194697770
                    ***********************HURRAY********************
FINAL SINGLE POINT ENERGY     -1047.025194679484

CARTESIAN COORDINATES (ANGSTROEM)
---------------------------------
  C     -4.744068    0.304787   -1.046628
  C     -4.568663    0.244940    0.333330
  C     -3.299865    0.080892    0.872824
  C     -2.177881   -0.030340    0.041370
  C     -0.828026   -0.218234    0.604095
  C     -0.537170   -0.603952    1.887189
  S      1.159033   -0.707193    2.119827
  C      1.397024   -0.223532    0.452094
  C      2.726680   -0.073064   -0.146735
  C      2.860536    0.380754   -1.462394
  C      4.128764    0.507194   -2.005094
  N      5.254197    0.220033   -1.340780
  C      5.122014   -0.212747   -0.082921
  C      3.899266   -0.373694    0.550024
  N      0.280057   -0.013213   -0.183298
  C     -2.365352    0.034943   -1.344545
  C     -3.636374    0.200219   -1.881593
  H     -5.733680    0.434704   -1.465421
  H     -5.422333    0.332635    0.993217
  H     -3.183773    0.052460    1.948227
  H     -1.212030   -0.843760    2.691963
  H      1.990662    0.631168   -2.051227
  H      4.245515    0.857317   -3.024180
  H      6.037308   -0.444847    0.448960
  H      3.880796   -0.732906    1.570312
  H     -1.511809   -0.050080   -2.001946
  H     -3.760528    0.245118   -2.956171

 Multiplicity           Mult            ....    1
 Number of Electrons    NEL             ....  124
 Basis Dimension        Dim             ....  926

ORBITAL ENERGIES
----------------

  NO   OCC          E(Eh)            E(eV)
   0   2.0000     -88.932245     -2419.9694
   1   2.0000     -14.327635      -389.8748
   2   2.0000     -14.321941      -389.7198
   3   2.0000     -10.252535      -278.9857
   4   2.0000     -10.221625      -278.1446
   5   2.0000     -10.215279      -277.9719
   6   2.0000     -10.211188      -277.8605
   7   2.0000     -10.210373      -277.8384
   8   2.0000     -10.208862      -277.7973
   9   2.0000     -10.192127      -277.3419
  10   2.0000     -10.188767      -277.2504
  11   2.0000     -10.185480      -277.1610
  12   2.0000     -10.176665      -276.9211
  13   2.0000     -10.175207      -276.8815
  14   2.0000     -10.175081      -276.8780
  15   2.0000     -10.174562      -276.8639
  16   2.0000     -10.174082      -276.8509
  17   2.0000      -7.983562      -217.2438
  18   2.0000      -5.946857      -161.8222
  19   2.0000      -5.943316      -161.7259
  20   2.0000      -5.941478      -161.6758
  21   2.0000      -0.978884       -26.6368
  22   2.0000      -0.949201       -25.8291
  23   2.0000      -0.862873       -23.4800
  24   2.0000      -0.831128       -22.6161
  25   2.0000      -0.808516       -22.0008
  26   2.0000      -0.778812       -21.1925
  27   2.0000      -0.766903       -20.8685
  28   2.0000      -0.747681       -20.3454
  29   2.0000      -0.723031       -19.6747
  30   2.0000      -0.653442       -17.7811
  31   2.0000      -0.641497       -17.4560
  32   2.0000      -0.619433       -16.8556
  33   2.0000      -0.604622       -16.4526
  34   2.0000      -0.579403       -15.7664
  35   2.0000      -0.559538       -15.2258
  36   2.0000      -0.529735       -14.4148
  37   2.0000      -0.512413       -13.9435
  38   2.0000      -0.490995       -13.3607
  39   2.0000      -0.474198       -12.9036
  40   2.0000      -0.469403       -12.7731
  41   2.0000      -0.451673       -12.2906
  42   2.0000      -0.446381       -12.1466
  43   2.0000      -0.438210       -11.9243
  44   2.0000      -0.431222       -11.7341
  45   2.0000      -0.420318       -11.4374
  46   2.0000      -0.419798       -11.4233
  47   2.0000      -0.407604       -11.0915
  48   2.0000      -0.404860       -11.0168
  49   2.0000      -0.383205       -10.4275
  50   2.0000      -0.375481       -10.2173
  51   2.0000      -0.365164        -9.9366
  52   2.0000      -0.347970        -9.4687
  53   2.0000      -0.341466        -9.2918
  54   2.0000      -0.321984        -8.7616
  55   2.0000      -0.300418        -8.1748
  56   2.0000      -0.288701        -7.8560
  57   2.0000      -0.272767        -7.4224
  58   2.0000      -0.271369        -7.3843
  59   2.0000      -0.269517        -7.3339
  60   2.0000      -0.258891        -7.0448
  61   2.0000      -0.224610        -6.1119
  62   0.0000      -0.076114        -2.0712
  63   0.0000      -0.042028        -1.1436
  64   0.0000      -0.022596        -0.6149
  65   0.0000      -0.014878        -0.4049
  66   0.0000      -0.001903        -0.0518

MULLIKEN ATOMIC CHARGES
-----------------------
   0 C :   -0.214112
   1 C :   -0.474769
   2 C :   -0.595351
   3 C :    1.624646
   4 C :    0.556010
   5 C :   -0.969106
   6 S :    0.126920
   7 C :    0.318597
   8 C :    1.383080
   9 C :   -0.253248
  10 C :   -0.323486
  11 N :   -0.404598
  12 C :   -0.318756
  13 C :   -0.429294
  14 N :   -0.805277
  15 C :   -0.377281
  16 C :   -0.487092
  17 H :    0.207799
  18 H :    0.219698
  19 H :    0.074010
  20 H :    0.130642
  21 H :    0.083619
  22 H :    0.273268
  23 H :    0.281235
  24 H :    0.053476
  25 H :    0.106362
  26 H :    0.213010
Sum of atomic charges:    0.0000000

LOEWDIN ATOMIC CHARGES
----------------------
   0 C :   -0.144588
   1 C :   -0.128809
   2 C :   -0.060410
   3 C :   -0.345768
   4 C :   -0.544698
   5 C :   -0.333335
   6 S :    1.213218
   7 C :   -0.722364
   8 C :   -0.392374
   9 C :   -0.029182
  10 C :   -0.242567
  11 N :    0.154609
  12 C :   -0.244457
  13 C :   -0.053111
  14 N :    0.279243
  15 C :   -0.060045
  16 C :   -0.128626
  17 H :    0.168209
  18 H :    0.170251
  19 H :    0.194627
  20 H :    0.157936
  21 H :    0.194902
  22 H :    0.170034
  23 H :    0.170144
  24 H :    0.192889
  25 H :    0.194181
  26 H :    0.170091

  Mayer bond orders larger than 0.100000
B(  0-C ,  1-C ) :   1.2171 B(  0-C ,  3-C ) :  -0.1117 B(  0-C ,  4-C ) :   0.1282
B(  0-C , 16-C ) :   1.2077 B(  0-C , 17-H ) :   0.9460 B(  1-C ,  2-C ) :   1.1922
B(  1-C ,  3-C ) :  -0.1140 B(  1-C , 18-H ) :   0.9343 B(  2-C ,  3-C ) :   0.6473
B(  2-C ,  4-C ) :   0.1767 B(  2-C , 14-N ) :   0.1030 B(  2-C , 15-C ) :  -0.1282
B(  2-C , 19-H ) :   1.1448 B(  3-C ,  4-C ) :   0.2436 B(  3-C , 15-C ) :   0.6418
B(  3-C , 16-C ) :  -0.1180 B(  3-C , 19-H ) :  -0.1030 B(  3-C , 25-H ) :  -0.1233
B(  4-C ,  5-C ) :   0.8242 B(  4-C , 14-N ) :   0.7780 B(  4-C , 15-C ) :   0.1405
B(  4-C , 20-H ) :  -0.1483 B(  5-C ,  6-S ) :   1.0683 B(  5-C , 14-N ) :   0.1039
B(  5-C , 20-H ) :   1.1684 B(  6-S ,  7-C ) :   0.5464 B(  6-S ,  8-C ) :   0.1654
B(  6-S , 14-N ) :   0.1912 B(  7-C ,  9-C ) :   0.1140 B(  7-C , 13-C ) :   0.1270
B(  7-C , 14-N ) :   0.9387 B(  8-C ,  9-C ) :   0.9207 B(  8-C , 10-C ) :  -0.1045
B(  8-C , 12-C ) :  -0.1155 B(  8-C , 13-C ) :   0.8573 B(  8-C , 21-H ) :  -0.1120
B(  8-C , 24-H ) :  -0.1456 B(  9-C , 10-C ) :   0.9113 B(  9-C , 11-N ) :   0.1115
B(  9-C , 13-C ) :  -0.2007 B(  9-C , 21-H ) :   1.1723 B( 10-C , 11-N ) :   1.0323
B( 10-C , 12-C ) :   0.1048 B( 10-C , 13-C ) :   0.1280 B( 10-C , 22-H ) :   0.8884
B( 11-N , 12-C ) :   1.0321 B( 11-N , 13-C ) :   0.1044 B( 12-C , 13-C ) :   0.8843
B( 12-C , 23-H ) :   0.8945 B( 13-C , 14-N ) :   0.1234 B( 13-C , 24-H ) :   1.1989
B( 15-C , 16-C ) :   1.1967 B( 15-C , 25-H ) :   1.1287 B( 16-C , 26-H ) :   0.9488

-----------------------------------------------------------------------------
         ABSORPTION SPECTRUM VIA TRANSITION ELECTRIC DIPOLE MOMENTS
-----------------------------------------------------------------------------
State   Energy    Wavelength  fosc         T2        TX        TY        TZ
        (cm-1)      (nm)                 (au**2)    (au)      (au)      (au)
-----------------------------------------------------------------------------
   1   29601.2    337.8   0.263200801   2.92720  -1.49935  -0.21521   0.79551
   2   34972.3    285.9   0.002991699   0.02816  -0.03004  -0.15734  -0.05004
   3   35816.8    279.2   0.004024046   0.03699  -0.05933   0.06251  -0.17193
   4   36766.5    272.0   0.355829619   3.18614  -1.57331   0.28629  -0.79301
   5   37682.8    265.4   0.289812321   2.53192   1.59099  -0.00502  -0.02548
   6   37788.7    264.6   0.041536041   0.36186  -0.58894  -0.00451  -0.12243
   7   39137.8    255.5   0.087680495   0.73753  -0.85727  -0.01130   0.04996
   8   39204.9    255.1   0.298265282   2.50460  -1.48611  -0.12613   0.52931
   9   40999.6    243.9   0.092876883   0.74577   0.41421  -0.26643   0.70938
  10   42336.1    236.2   0.000768454   0.00598  -0.06218   0.03181   0.03312

FINAL SINGLE POINT ENERGY     -1046.890321561429

DIPOLE MOMENT
-------------
                                X             Y             Z
Electronic contribution:      6.45425      -1.56447       5.06285
Nuclear contribution   :     -7.75047       1.22302      -3.83358
                        -----------------------------------------
Total Dipole Moment    :     -1.29622      -0.34144       1.22927
                        -----------------------------------------
Magnitude (a.u.)       :      1.81876
Magnitude (Debye)      :      4.62291

Rotational constants in cm-1:     0.036639     0.006929     0.005852
Rotational constants in MHz :  1098.417873   207.740396   175.429197

                             ****ORCA TERMINATED NORMALLY****
TOTAL RUN TIME: 0 days 4 hours 1 minutes 20 seconds 518 msec
