                         Program Version 5.0.2 -  RELEASE  -
|  1> ! m062x defgrid3 aug-cc-PVTZ RIJCOSX Opt
|  2> %maxcore 4000
|  3> %basis
|  4>  AuxJ "aug-cc-PVTZ/JK"
|  5>  AuxC "aug-cc-PVTZ/C"
|  6>  newGTO H "cc-PVTZ" end
|  7>  newAuxJGTO H "cc-PVTZ/JK" end
|  8>  newAuxCGTO H "cc-PVTZ/C" end
|  9> end
| 10> %cpcm
| 11>  SMD true
| 12>  SMDsolvent "ethanol"
| 13> end
| 14> %pal nprocs 4 end
| 15> * xyz 0 1
| 16> C         -4.68160        0.30280       -1.06730
| 17> C         -4.55820        0.00650        0.28040
| 18> C         -3.30890       -0.15020        0.84950
| 19> C         -2.15940       -0.01140        0.07290
| 20> C         -0.82380       -0.16900        0.63620
| 21> C         -0.50840       -0.46110        1.94080
| 22> S          1.18340       -0.55520        2.16840
| 23> C          1.37840       -0.18700        0.45350
| 24> C          2.68340       -0.08810       -0.15860
| 25> C          2.79850        0.20500       -1.51980
| 26> C          4.06540        0.29120       -2.06860
| 27> N          5.17790        0.11120       -1.37550
| 28> C          5.06900       -0.16630       -0.08730
| 29> C          3.85700       -0.27780        0.57150
| 30> N          0.26230       -0.02340       -0.16410
| 31> C         -2.29340        0.28700       -1.28310
| 32> C         -3.54470        0.44250       -1.84640
| 33> H         -5.66040        0.42420       -1.50710
| 34> H         -5.44200       -0.10330        0.89190
| 35> H         -3.22970       -0.38090        1.90090
| 36> H         -1.16210       -0.62500        2.77260
| 37> H          1.91090        0.35700       -2.11140
| 38> H          4.20260        0.51600       -3.11820
| 39> H          6.00300       -0.30580        0.44110
| 40> H          3.81790       -0.50630        1.62610
| 41> H         -1.40130        0.39350       -1.88020
| 42> H         -3.63550        0.67350       -2.89770
| 43> *
| 44>
| 45>
| 46> $new_job
| 47> ! m062x defgrid3 aug-cc-PVTZ RIJCOSX SP
| 48> %maxcore 4000
| 49> %basis
| 50>  AuxJ "aug-cc-PVTZ/JK"
| 51>  AuxC "aug-cc-PVTZ/C"
| 52>  newGTO H "cc-PVTZ" end
| 53>  newAuxJGTO H "cc-PVTZ/JK" end
| 54>  newAuxCGTO H "cc-PVTZ/C" end
| 55> end
| 56> %cpcm
| 57>  SMD true
| 58>  SMDsolvent "ethanol"
| 59> end
| 60> %pal nprocs 4 end
| 61> %tddft
| 62>  nroots 10
| 63>  maxdim 7
| 64> end
| 65> * xyzfile 0 1
| 66>
| 67>                          ****END OF INPUT****
 Total Charge           Charge          ....    0
 Multiplicity           Mult            ....    1
 Number of Electrons    NEL             ....  124
FINAL SINGLE POINT ENERGY     -1047.193802467997
FINAL SINGLE POINT ENERGY     -1047.195591208494
FINAL SINGLE POINT ENERGY     -1047.195932346171
FINAL SINGLE POINT ENERGY     -1047.196006790125
FINAL SINGLE POINT ENERGY     -1047.196020471212
FINAL SINGLE POINT ENERGY     -1047.196021553962
FINAL SINGLE POINT ENERGY     -1047.196025562074
FINAL SINGLE POINT ENERGY     -1047.196030890274
FINAL SINGLE POINT ENERGY     -1047.196020508562
FINAL SINGLE POINT ENERGY     -1047.196054050937
FINAL SINGLE POINT ENERGY     -1047.196064767547
FINAL SINGLE POINT ENERGY     -1047.196084884903
FINAL SINGLE POINT ENERGY     -1047.196087074537
                    ***********************HURRAY********************
FINAL SINGLE POINT ENERGY     -1047.196088743676

CARTESIAN COORDINATES (ANGSTROEM)
---------------------------------
  C     -4.728495    0.263288   -1.053001
  C     -4.571647   -0.169980    0.258525
  C     -3.304690   -0.296258    0.805960
  C     -2.172110    0.012013    0.049994
  C     -0.820324   -0.107770    0.626165
  C     -0.523220   -0.294635    1.945733
  S      1.166828   -0.367506    2.171605
  C      1.389223   -0.141765    0.468536
  C      2.719680   -0.091724   -0.153395
  C      2.840122    0.144839   -1.520131
  C      4.105379    0.185103   -2.079633
  N      5.229478    0.010845   -1.382360
  C      5.105609   -0.213825   -0.074438
  C      3.886924   -0.274425    0.580965
  N      0.278646   -0.021582   -0.191651
  C     -2.337169    0.442428   -1.266661
  C     -3.606796    0.567386   -1.812621
  H     -5.718329    0.360709   -1.479090
  H     -5.439529   -0.414844    0.856740
  H     -3.199468   -0.645903    1.824728
  H     -1.192143   -0.378247    2.786734
  H      1.964467    0.295581   -2.134547
  H      4.219311    0.367236   -3.141586
  H      6.023983   -0.353968    0.482783
  H      3.868989   -0.464033    1.646346
  H     -1.465881    0.681974   -1.860336
  H     -3.718539    0.904663   -2.834864

 Multiplicity           Mult            ....    1
 Number of Electrons    NEL             ....  124
 Basis Dimension        Dim             ....  926

ORBITAL ENERGIES
----------------

  NO   OCC          E(Eh)            E(eV)
   0   2.0000     -89.978754     -2448.4464
   1   2.0000     -14.763478      -401.7347
   2   2.0000     -14.757251      -401.5652
   3   2.0000     -10.623012      -289.0668
   4   2.0000     -10.589916      -288.1663
   5   2.0000     -10.583559      -287.9933
   6   2.0000     -10.580880      -287.9204
   7   2.0000     -10.580007      -287.8966
   8   2.0000     -10.577769      -287.8357
   9   2.0000     -10.559845      -287.3480
  10   2.0000     -10.557101      -287.2733
  11   2.0000     -10.553581      -287.1775
  12   2.0000     -10.545159      -286.9484
  13   2.0000     -10.543490      -286.9029
  14   2.0000     -10.543289      -286.8975
  15   2.0000     -10.542640      -286.8798
  16   2.0000     -10.541972      -286.8616
  17   2.0000      -8.314330      -226.2444
  18   2.0000      -6.233401      -169.6195
  19   2.0000      -6.231322      -169.5629
  20   2.0000      -6.230221      -169.5329
  21   2.0000      -1.095361       -29.8063
  22   2.0000      -1.064200       -28.9584
  23   2.0000      -0.972134       -26.4531
  24   2.0000      -0.936487       -25.4831
  25   2.0000      -0.907811       -24.7028
  26   2.0000      -0.879825       -23.9412
  27   2.0000      -0.868043       -23.6206
  28   2.0000      -0.847539       -23.0627
  29   2.0000      -0.818538       -22.2736
  30   2.0000      -0.740487       -20.1497
  31   2.0000      -0.729927       -19.8623
  32   2.0000      -0.705306       -19.1923
  33   2.0000      -0.689416       -18.7600
  34   2.0000      -0.660367       -17.9695
  35   2.0000      -0.639119       -17.3913
  36   2.0000      -0.610077       -16.6010
  37   2.0000      -0.589156       -16.0318
  38   2.0000      -0.562287       -15.3006
  39   2.0000      -0.548460       -14.9244
  40   2.0000      -0.542519       -14.7627
  41   2.0000      -0.522388       -14.2149
  42   2.0000      -0.518142       -14.0994
  43   2.0000      -0.514887       -14.0108
  44   2.0000      -0.500023       -13.6063
  45   2.0000      -0.488694       -13.2980
  46   2.0000      -0.485427       -13.2091
  47   2.0000      -0.482565       -13.1313
  48   2.0000      -0.469343       -12.7715
  49   2.0000      -0.450484       -12.2583
  50   2.0000      -0.443520       -12.0688
  51   2.0000      -0.427023       -11.6199
  52   2.0000      -0.406263       -11.0550
  53   2.0000      -0.400355       -10.8942
  54   2.0000      -0.384666       -10.4673
  55   2.0000      -0.358700        -9.7607
  56   2.0000      -0.356171        -9.6919
  57   2.0000      -0.338263        -9.2046
  58   2.0000      -0.328869        -8.9490
  59   2.0000      -0.325050        -8.8451
  60   2.0000      -0.314130        -8.5479
  61   2.0000      -0.274164        -7.4604
  62   0.0000      -0.045747        -1.2448
  63   0.0000      -0.013304        -0.3620
  64   0.0000       0.004831         0.1315
  65   0.0000       0.008701         0.2368
  66   0.0000       0.008947         0.2435

MULLIKEN ATOMIC CHARGES
-----------------------
   0 C :   -0.168361
   1 C :   -0.531854
   2 C :   -0.539650
   3 C :    2.201250
   4 C :    0.660817
   5 C :   -1.251627
   6 S :    0.018744
   7 C :    0.269407
   8 C :    1.945927
   9 C :   -0.168929
  10 C :   -0.530639
  11 N :   -0.433821
  12 C :   -0.514278
  13 C :   -0.411241
  14 N :   -0.753981
  15 C :   -0.283389
  16 C :   -0.632683
  17 H :    0.127062
  18 H :    0.142246
  19 H :   -0.018261
  20 H :    0.128169
  21 H :    0.046787
  22 H :    0.272035
  23 H :    0.283271
  24 H :    0.006009
  25 H :    0.013142
  26 H :    0.123849
Sum of atomic charges:   -0.0000000

LOEWDIN ATOMIC CHARGES
----------------------
   0 C :   -0.144967
   1 C :   -0.128100
   2 C :   -0.061638
   3 C :   -0.355213
   4 C :   -0.556653
   5 C :   -0.333140
   6 S :    1.235553
   7 C :   -0.747039
   8 C :   -0.401733
   9 C :   -0.028209
  10 C :   -0.241323
  11 N :    0.157218
  12 C :   -0.243349
  13 C :   -0.053048
  14 N :    0.280411
  15 C :   -0.061314
  16 C :   -0.127788
  17 H :    0.169795
  18 H :    0.171707
  19 H :    0.197714
  20 H :    0.162515
  21 H :    0.198561
  22 H :    0.172145
  23 H :    0.172321
  24 H :    0.196198
  25 H :    0.197872
  26 H :    0.171504

  Mayer bond orders larger than 0.100000
B(  0-C ,  1-C ) :   1.1638 B(  0-C , 16-C ) :   1.1156 B(  0-C , 17-H ) :   1.0825
B(  0-C , 26-H ) :  -0.1107 B(  1-C ,  2-C ) :   1.0308 B(  1-C ,  3-C ) :  -0.3570
B(  1-C ,  4-C ) :   0.1905 B(  1-C , 16-C ) :   0.1241 B(  1-C , 18-H ) :   1.0835
B(  1-C , 19-H ) :  -0.1159 B(  2-C ,  3-C ) :   0.3048 B(  2-C , 18-H ) :  -0.1015
B(  2-C , 19-H ) :   1.4162 B(  3-C , 14-N ) :  -0.1926 B(  3-C , 15-C ) :   0.3732
B(  3-C , 16-C ) :  -0.3013 B(  3-C , 19-H ) :  -0.3456 B(  3-C , 25-H ) :  -0.3894
B(  4-C ,  5-C ) :   0.1873 B(  4-C ,  7-C ) :  -0.1026 B(  4-C , 14-N ) :   0.9637
B(  4-C , 15-C ) :   0.2400 B(  4-C , 16-C ) :   0.1547 B(  4-C , 20-H ) :  -0.3508
B(  4-C , 25-H ) :   0.1053 B(  5-C ,  6-S ) :   1.3748 B(  5-C ,  7-C ) :   0.1474
B(  5-C , 20-H ) :   1.2926 B(  6-S ,  7-C ) :   0.2051 B(  6-S ,  8-C ) :   0.2151
B(  6-S , 14-N ) :   0.1484 B(  7-C ,  9-C ) :   0.2913 B(  7-C , 13-C ) :   0.1760
B(  7-C , 14-N ) :   1.0599 B(  8-C ,  9-C ) :   0.3426 B(  8-C , 11-N ) :  -0.1322
B(  8-C , 12-C ) :  -0.1076 B(  8-C , 13-C ) :   0.2211 B(  8-C , 14-N ) :  -0.1127
B(  8-C , 21-H ) :  -0.3102 B(  8-C , 24-H ) :  -0.3552 B(  9-C , 10-C ) :   0.5910
B(  9-C , 11-N ) :   0.1399 B(  9-C , 13-C ) :  -0.2335 B(  9-C , 21-H ) :   1.2988
B(  9-C , 22-H ) :  -0.1085 B( 10-C , 11-N ) :   0.8464 B( 10-C , 12-C ) :   0.1241
B( 10-C , 22-H ) :   0.9862 B( 11-N , 12-C ) :   0.9244 B( 11-N , 13-C ) :   0.1104
B( 12-C , 13-C ) :   0.7058 B( 12-C , 23-H ) :   0.9660 B( 13-C , 24-H ) :   1.3776
B( 15-C , 16-C ) :   0.9633 B( 15-C , 25-H ) :   1.3492 B( 15-C , 26-H ) :  -0.1237
B( 16-C , 26-H ) :   1.1345

-----------------------------------------------------------------------------
         ABSORPTION SPECTRUM VIA TRANSITION ELECTRIC DIPOLE MOMENTS
-----------------------------------------------------------------------------
State   Energy    Wavelength  fosc         T2        TX        TY        TZ
        (cm-1)      (nm)                 (au**2)    (au)      (au)      (au)
-----------------------------------------------------------------------------
   1   34619.1    288.9   0.332276107   3.15980   1.48879   0.07567  -0.96829
   2   38669.3    258.6   0.004405180   0.03750   0.01452   0.19059   0.03110
   3   40593.8    246.3   0.683884967   5.54624  -2.16100   0.18999  -0.91664
   4   41307.1    242.1   0.011423177   0.09104   0.29322   0.03255  -0.06326
   5   41621.4    240.3   0.104086773   0.82329  -0.82470  -0.04938   0.37514
   6   42200.3    237.0   0.004777589   0.03727   0.12841  -0.00203  -0.14415
   7   45567.4    219.5   0.157718025   1.13947  -1.06554   0.00255   0.06388
   8   45708.5    218.8   0.340758805   2.45429  -1.56519   0.04883   0.04561
   9   46167.2    216.6   0.000017878   0.00013  -0.01082  -0.00324   0.00010
  10   47508.0    210.5   0.037781669   0.26181  -0.15673   0.12878  -0.46975

FINAL SINGLE POINT ENERGY     -1047.038352570547

DIPOLE MOMENT
-------------
                                X             Y             Z
Electronic contribution:      6.54128      -0.92101       5.17176
Nuclear contribution   :     -7.73748       0.78515      -3.88159
                        -----------------------------------------
Total Dipole Moment    :     -1.19621      -0.13586       1.29018
                        -----------------------------------------
Magnitude (a.u.)       :      1.76463
Magnitude (Debye)      :      4.48534

Rotational constants in cm-1:     0.037006     0.006987     0.005889
Rotational constants in MHz :  1109.417757   209.460866   176.533553

                             ****ORCA TERMINATED NORMALLY****
TOTAL RUN TIME: 0 days 7 hours 23 minutes 25 seconds 802 msec
