                         Program Version 5.0.2 -  RELEASE  -
|  1> ! pbe0 d3bj aug-cc-PVTZ RIJCOSX Opt
|  2> %maxcore 4000
|  3> %basis
|  4>  AuxJ "aug-cc-PVTZ/JK"
|  5>  AuxC "aug-cc-PVTZ/C"
|  6>  newGTO H "cc-PVTZ" end
|  7>  newAuxJGTO H "cc-PVTZ/JK" end
|  8>  newAuxCGTO H "cc-PVTZ/C" end
|  9> end
| 10> %cpcm
| 11>  SMD true
| 12>  SMDsolvent "ethanol"
| 13> end
| 14> %pal nprocs 4 end
| 15> * xyz 0 1
| 16> C         -4.68160        0.30280       -1.06730
| 17> C         -4.55820        0.00650        0.28040
| 18> C         -3.30890       -0.15020        0.84950
| 19> C         -2.15940       -0.01140        0.07290
| 20> C         -0.82380       -0.16900        0.63620
| 21> C         -0.50840       -0.46110        1.94080
| 22> S          1.18340       -0.55520        2.16840
| 23> C          1.37840       -0.18700        0.45350
| 24> C          2.68340       -0.08810       -0.15860
| 25> C          2.79850        0.20500       -1.51980
| 26> C          4.06540        0.29120       -2.06860
| 27> N          5.17790        0.11120       -1.37550
| 28> C          5.06900       -0.16630       -0.08730
| 29> C          3.85700       -0.27780        0.57150
| 30> N          0.26230       -0.02340       -0.16410
| 31> C         -2.29340        0.28700       -1.28310
| 32> C         -3.54470        0.44250       -1.84640
| 33> H         -5.66040        0.42420       -1.50710
| 34> H         -5.44200       -0.10330        0.89190
| 35> H         -3.22970       -0.38090        1.90090
| 36> H         -1.16210       -0.62500        2.77260
| 37> H          1.91090        0.35700       -2.11140
| 38> H          4.20260        0.51600       -3.11820
| 39> H          6.00300       -0.30580        0.44110
| 40> H          3.81790       -0.50630        1.62610
| 41> H         -1.40130        0.39350       -1.88020
| 42> H         -3.63550        0.67350       -2.89770
| 43> *
| 44>
| 45>
| 46> $new_job
| 47> ! b2gp-plyp aug-cc-PVTZ RIJCOSX SP
| 48> %maxcore 4000
| 49> %basis
| 50>  AuxJ "aug-cc-PVTZ/JK"
| 51>  AuxC "aug-cc-PVTZ/C"
| 52>  newGTO H "cc-PVTZ" end
| 53>  newAuxJGTO H "cc-PVTZ/JK" end
| 54>  newAuxCGTO H "cc-PVTZ/C" end
| 55> end
| 56> %cpcm
| 57>  SMD true
| 58>  SMDsolvent "ethanol"
| 59> end
| 60> %pal nprocs 4 end
| 61> %tddft
| 62>  nroots 10
| 63>  maxdim 7
| 64> end
| 65> * xyzfile 0 1
| 66>
| 67>                          ****END OF INPUT****
 Total Charge           Charge          ....    0
 Multiplicity           Mult            ....    1
 Number of Electrons    NEL             ....  124
Dispersion correction           -0.032531524
FINAL SINGLE POINT ENERGY     -1046.594022915498
Dispersion correction            ... done
Dispersion correction           -0.032448201
FINAL SINGLE POINT ENERGY     -1046.595334089852
Dispersion correction            ... done
Dispersion correction           -0.032420350
FINAL SINGLE POINT ENERGY     -1046.595623937564
Dispersion correction            ... done
FINAL SINGLE POINT ENERGY     -1046.595693274322
FINAL SINGLE POINT ENERGY     -1046.595704035182
FINAL SINGLE POINT ENERGY     -1046.595719816178
FINAL SINGLE POINT ENERGY     -1046.595728503529
FINAL SINGLE POINT ENERGY     -1046.595730522848
FINAL SINGLE POINT ENERGY     -1046.595741518289
Dispersion correction            ... done
Dispersion correction           -0.032413185
FINAL SINGLE POINT ENERGY     -1046.595742963662
Dispersion correction            ... done
                    ***********************HURRAY********************
Dispersion correction           -0.032413053
FINAL SINGLE POINT ENERGY     -1046.595743727997

CARTESIAN COORDINATES (ANGSTROEM)
---------------------------------
  C     -4.722959    0.292194   -1.048115
  C     -4.562495    0.130626    0.322284
  C     -3.297837   -0.021470    0.865177
  C     -2.167620   -0.017148    0.045200
  C     -0.821941   -0.185759    0.606255
  C     -0.526308   -0.524957    1.900242
  S      1.159519   -0.618918    2.121894
  C      1.389403   -0.198967    0.454669
  C      2.712827   -0.075441   -0.148765
  C      2.841425    0.316169   -1.479478
  C      4.107303    0.417246   -2.025524
  N      5.229105    0.161841   -1.352097
  C      5.098693   -0.211122   -0.079993
  C      3.880185   -0.342892    0.560712
  N      0.275936   -0.009044   -0.189024
  C     -2.337974    0.148284   -1.329822
  C     -3.605251    0.300597   -1.870526
  H     -5.713562    0.412602   -1.470605
  H     -5.428211    0.126862    0.974210
  H     -3.191987   -0.137321    1.937178
  H     -1.196884   -0.729028    2.720440
  H      1.967465    0.538285   -2.076554
  H      4.223583    0.720464   -3.061074
  H      6.015821   -0.418583    0.461638
  H      3.859882   -0.654183    1.598307
  H     -1.468968    0.153514   -1.975016
  H     -3.718850    0.425751   -2.941112

 Multiplicity           Mult            ....    1
 Number of Electrons    NEL             ....  124
 Basis Dimension        Dim             ....  926

ORBITAL ENERGIES
----------------

  NO   OCC          E(Eh)            E(eV)
   0   2.0000     -90.678222     -2467.4799
   1   2.0000     -15.040155      -409.2634
   2   2.0000     -15.035425      -409.1347
   3   2.0000     -10.863001      -295.5973
   4   2.0000     -10.826102      -294.5932
   5   2.0000     -10.820656      -294.4450
   6   2.0000     -10.818662      -294.3908
   7   2.0000     -10.817659      -294.3635
   8   2.0000     -10.811753      -294.2028
   9   2.0000     -10.794735      -293.7397
  10   2.0000     -10.791817      -293.6603
  11   2.0000     -10.788177      -293.5612
  12   2.0000     -10.780546      -293.3536
  13   2.0000     -10.779131      -293.3151
  14   2.0000     -10.778744      -293.3045
  15   2.0000     -10.778062      -293.2860
  16   2.0000     -10.777492      -293.2705
  17   2.0000      -8.563827      -233.0336
  18   2.0000      -6.368190      -173.2873
  19   2.0000      -6.366174      -173.2324
  20   2.0000      -6.364967      -173.1996
  21   2.0000      -1.167433       -31.7675
  22   2.0000      -1.135060       -30.8866
  23   2.0000      -1.037651       -28.2359
  24   2.0000      -1.000126       -27.2148
  25   2.0000      -0.966555       -26.3013
  26   2.0000      -0.938964       -25.5505
  27   2.0000      -0.925624       -25.1875
  28   2.0000      -0.905153       -24.6305
  29   2.0000      -0.873685       -23.7742
  30   2.0000      -0.789589       -21.4858
  31   2.0000      -0.775049       -21.0902
  32   2.0000      -0.749928       -20.4066
  33   2.0000      -0.734008       -19.9734
  34   2.0000      -0.700568       -19.0634
  35   2.0000      -0.677199       -18.4275
  36   2.0000      -0.642953       -17.4956
  37   2.0000      -0.622457       -16.9379
  38   2.0000      -0.598327       -16.2813
  39   2.0000      -0.581334       -15.8189
  40   2.0000      -0.574852       -15.6425
  41   2.0000      -0.553921       -15.0730
  42   2.0000      -0.548062       -14.9135
  43   2.0000      -0.533060       -14.5053
  44   2.0000      -0.530521       -14.4362
  45   2.0000      -0.518805       -14.1174
  46   2.0000      -0.515675       -14.0322
  47   2.0000      -0.498571       -13.5668
  48   2.0000      -0.493354       -13.4248
  49   2.0000      -0.468012       -12.7353
  50   2.0000      -0.458495       -12.4763
  51   2.0000      -0.455652       -12.3989
  52   2.0000      -0.435770       -11.8579
  53   2.0000      -0.427991       -11.6462
  54   2.0000      -0.386582       -10.5194
  55   2.0000      -0.377817       -10.2809
  56   2.0000      -0.364990        -9.9319
  57   2.0000      -0.364337        -9.9141
  58   2.0000      -0.326339        -8.8801
  59   2.0000      -0.321567        -8.7503
  60   2.0000      -0.310812        -8.4576
  61   2.0000      -0.267696        -7.2844
  62   0.0000      -0.011813        -0.3214
  63   0.0000       0.023449         0.6381
  64   0.0000       0.029317         0.7978
  65   0.0000       0.030834         0.8390
  66   0.0000       0.036196         0.9849

MULLIKEN ATOMIC CHARGES
-----------------------
   0 C :   -0.279575
   1 C :   -0.640568
   2 C :   -0.584306
   3 C :    1.762895
   4 C :    0.479989
   5 C :   -1.077609
   6 S :    0.007509
   7 C :    0.419341
   8 C :    1.524848
   9 C :   -0.224466
  10 C :   -0.427743
  11 N :   -0.391276
  12 C :   -0.436177
  13 C :   -0.430691
  14 N :   -0.855921
  15 C :   -0.264540
  16 C :   -0.593171
  17 H :    0.250596
  18 H :    0.260425
  19 H :    0.091119
  20 H :    0.186483
  21 H :    0.120020
  22 H :    0.315888
  23 H :    0.319215
  24 H :    0.082188
  25 H :    0.141755
  26 H :    0.243771
Sum of atomic charges:   -0.0000000

LOEWDIN ATOMIC CHARGES
----------------------
   0 C :   -0.146377
   1 C :   -0.130592
   2 C :   -0.060749
   3 C :   -0.352154
   4 C :   -0.556062
   5 C :   -0.335103
   6 S :    1.226738
   7 C :   -0.735523
   8 C :   -0.398567
   9 C :   -0.025736
  10 C :   -0.242207
  11 N :    0.152662
  12 C :   -0.244032
  13 C :   -0.051628
  14 N :    0.276610
  15 C :   -0.060122
  16 C :   -0.129823
  17 H :    0.170651
  18 H :    0.172633
  19 H :    0.197409
  20 H :    0.160472
  21 H :    0.198063
  22 H :    0.173693
  23 H :    0.173836
  24 H :    0.195599
  25 H :    0.197953
  26 H :    0.172355

  Mayer bond orders larger than 0.100000
B(  0-C ,  1-C ) :   1.1841 B(  0-C ,  4-C ) :   0.1136 B(  0-C , 16-C ) :   1.1651
B(  0-C , 17-H ) :   0.9651 B(  1-C ,  2-C ) :   1.2313 B(  1-C ,  3-C ) :  -0.1765
B(  1-C , 16-C ) :   0.1208 B(  1-C , 18-H ) :   0.9504 B(  2-C ,  3-C ) :   0.6904
B(  2-C ,  5-C ) :   0.1160 B(  2-C , 14-N ) :   0.1239 B(  2-C , 15-C ) :  -0.2546
B(  2-C , 19-H ) :   1.1951 B(  3-C ,  4-C ) :   0.3305 B(  3-C ,  5-C ) :  -0.1172
B(  3-C , 15-C ) :   0.6803 B(  3-C , 16-C ) :  -0.2088 B(  3-C , 19-H ) :  -0.1392
B(  3-C , 25-H ) :  -0.1621 B(  4-C ,  5-C ) :   0.8032 B(  4-C ,  6-S ) :   0.1123
B(  4-C , 14-N ) :   0.7834 B(  4-C , 20-H ) :  -0.1820 B(  5-C ,  6-S ) :   1.1265
B(  5-C , 20-H ) :   1.1751 B(  6-S ,  7-C ) :   0.4674 B(  6-S ,  8-C ) :   0.2036
B(  6-S , 13-C ) :  -0.1028 B(  6-S , 14-N ) :   0.1911 B(  7-C , 13-C ) :   0.1285
B(  7-C , 14-N ) :   1.0366 B(  8-C ,  9-C ) :   0.8475 B(  8-C , 10-C ) :  -0.1512
B(  8-C , 12-C ) :  -0.1280 B(  8-C , 13-C ) :   0.7428 B(  8-C , 21-H ) :  -0.1501
B(  8-C , 24-H ) :  -0.1882 B(  9-C , 10-C ) :   0.9059 B(  9-C , 13-C ) :  -0.2716
B(  9-C , 21-H ) :   1.1950 B( 10-C , 11-N ) :   1.0311 B( 10-C , 12-C ) :   0.1255
B( 10-C , 13-C ) :   0.1209 B( 10-C , 22-H ) :   0.8795 B( 11-N , 12-C ) :   1.0148
B( 12-C , 13-C ) :   0.8648 B( 12-C , 23-H ) :   0.8947 B( 13-C , 14-N ) :   0.1287
B( 13-C , 24-H ) :   1.2410 B( 15-C , 16-C ) :   1.1760 B( 15-C , 25-H ) :   1.1493
B( 16-C , 26-H ) :   0.9803

MP2 TOTAL ENERGY:    -1046.634582114 Eh

-----------------------------------------------------------------------------
         ABSORPTION SPECTRUM VIA TRANSITION ELECTRIC DIPOLE MOMENTS
-----------------------------------------------------------------------------
State   Energy    Wavelength  fosc         T2        TX        TY        TZ
        (cm-1)      (nm)                 (au**2)    (au)      (au)      (au)
-----------------------------------------------------------------------------
   1   32620.9    306.6   0.311414384   3.14282  -1.39648  -0.24879   1.06338
   2   39421.5    253.7   0.692736974   5.78510   2.26272  -0.25099   0.77601
   3   39249.0    254.8   0.066173517   0.55505  -0.28058  -0.20682   0.65844
   4   40257.8    248.4   0.032599474   0.26659  -0.51626   0.00659   0.00356
   5   38625.5    258.9   0.004998953   0.04261   0.03144   0.19586   0.05707
   6   40817.6    245.0   0.002234720   0.01802   0.12948  -0.03397   0.01022
   7   44904.7    222.7   0.001947952   0.01428   0.09878  -0.04865   0.04645
   8   43496.7    229.9   0.314987597   2.38403  -1.54247   0.06487  -0.02479
   9   47330.2    211.3   0.003237601   0.02252   0.01011   0.03405  -0.14580
  10   48984.2    204.1   0.008762126   0.05889   0.07226   0.19219   0.12934

Dispersion correction           -0.023022238
FINAL SINGLE POINT ENERGY     -1045.345029798899

DIPOLE MOMENT
-------------
                                X             Y             Z
Electronic contribution:      6.52185      -1.38233       5.04090
Nuclear contribution   :     -7.72385       1.09532      -3.81528
                        -----------------------------------------
Total Dipole Moment    :     -1.20200      -0.28701       1.22562
                        -----------------------------------------
Magnitude (a.u.)       :      1.74049
Magnitude (Debye)      :      4.42398

Rotational constants in cm-1:     0.037065     0.007005     0.005899
Rotational constants in MHz :  1111.168608   210.000563   176.859255

                             ****ORCA TERMINATED NORMALLY****
TOTAL RUN TIME: 0 days 3 hours 10 minutes 46 seconds 860 msec
