                         Program Version 5.0.2 -  RELEASE  -
|  1> ! pbe0 d3bj aug-cc-PVTZ RIJCOSX Opt
|  2> %maxcore 4000
|  3> %basis
|  4>  AuxJ "aug-cc-PVTZ/JK"
|  5>  AuxC "aug-cc-PVTZ/C"
|  6>  newGTO H "cc-PVTZ" end
|  7>  newAuxJGTO H "cc-PVTZ/JK" end
|  8>  newAuxCGTO H "cc-PVTZ/C" end
|  9> end
| 10> %cpcm
| 11>  SMD true
| 12>  SMDsolvent "ethanol"
| 13> end
| 14> %pal nprocs 4 end
| 15> * xyz 0 1
| 16> C         -4.68160        0.30280       -1.06730
| 17> C         -4.55820        0.00650        0.28040
| 18> C         -3.30890       -0.15020        0.84950
| 19> C         -2.15940       -0.01140        0.07290
| 20> C         -0.82380       -0.16900        0.63620
| 21> C         -0.50840       -0.46110        1.94080
| 22> S          1.18340       -0.55520        2.16840
| 23> C          1.37840       -0.18700        0.45350
| 24> C          2.68340       -0.08810       -0.15860
| 25> C          2.79850        0.20500       -1.51980
| 26> C          4.06540        0.29120       -2.06860
| 27> N          5.17790        0.11120       -1.37550
| 28> C          5.06900       -0.16630       -0.08730
| 29> C          3.85700       -0.27780        0.57150
| 30> N          0.26230       -0.02340       -0.16410
| 31> C         -2.29340        0.28700       -1.28310
| 32> C         -3.54470        0.44250       -1.84640
| 33> H         -5.66040        0.42420       -1.50710
| 34> H         -5.44200       -0.10330        0.89190
| 35> H         -3.22970       -0.38090        1.90090
| 36> H         -1.16210       -0.62500        2.77260
| 37> H          1.91090        0.35700       -2.11140
| 38> H          4.20260        0.51600       -3.11820
| 39> H          6.00300       -0.30580        0.44110
| 40> H          3.81790       -0.50630        1.62610
| 41> H         -1.40130        0.39350       -1.88020
| 42> H         -3.63550        0.67350       -2.89770
| 43> *
| 44>
| 45>
| 46> $new_job
| 47> ! b2plyp aug-cc-PVTZ RIJCOSX SP
| 48> %maxcore 4000
| 49> %basis
| 50>  AuxJ "aug-cc-PVTZ/JK"
| 51>  AuxC "aug-cc-PVTZ/C"
| 52>  newGTO H "cc-PVTZ" end
| 53>  newAuxJGTO H "cc-PVTZ/JK" end
| 54>  newAuxCGTO H "cc-PVTZ/C" end
| 55> end
| 56> %cpcm
| 57>  SMD true
| 58>  SMDsolvent "ethanol"
| 59> end
| 60> %pal nprocs 4 end
| 61> %tddft
| 62>  nroots 10
| 63>  maxdim 7
| 64> end
| 65> * xyzfile 0 1
| 66>
| 67>                          ****END OF INPUT****
 Total Charge           Charge          ....    0
 Multiplicity           Mult            ....    1
 Number of Electrons    NEL             ....  124
Dispersion correction           -0.032531524
FINAL SINGLE POINT ENERGY     -1046.594022915498
Dispersion correction            ... done
Dispersion correction           -0.032448201
FINAL SINGLE POINT ENERGY     -1046.595334089852
Dispersion correction            ... done
Dispersion correction           -0.032420350
FINAL SINGLE POINT ENERGY     -1046.595623937564
Dispersion correction            ... done
FINAL SINGLE POINT ENERGY     -1046.595693274322
FINAL SINGLE POINT ENERGY     -1046.595704035182
FINAL SINGLE POINT ENERGY     -1046.595719816178
FINAL SINGLE POINT ENERGY     -1046.595728503529
FINAL SINGLE POINT ENERGY     -1046.595730522848
FINAL SINGLE POINT ENERGY     -1046.595741518289
Dispersion correction            ... done
Dispersion correction           -0.032413185
FINAL SINGLE POINT ENERGY     -1046.595742963662
Dispersion correction            ... done
                    ***********************HURRAY********************
Dispersion correction           -0.032413053
FINAL SINGLE POINT ENERGY     -1046.595743727997

CARTESIAN COORDINATES (ANGSTROEM)
---------------------------------
  C     -4.722959    0.292194   -1.048115
  C     -4.562495    0.130626    0.322284
  C     -3.297837   -0.021470    0.865177
  C     -2.167620   -0.017148    0.045200
  C     -0.821941   -0.185759    0.606255
  C     -0.526308   -0.524957    1.900242
  S      1.159519   -0.618918    2.121894
  C      1.389403   -0.198967    0.454669
  C      2.712827   -0.075441   -0.148765
  C      2.841425    0.316169   -1.479478
  C      4.107303    0.417246   -2.025524
  N      5.229105    0.161841   -1.352097
  C      5.098693   -0.211122   -0.079993
  C      3.880185   -0.342892    0.560712
  N      0.275936   -0.009044   -0.189024
  C     -2.337974    0.148284   -1.329822
  C     -3.605251    0.300597   -1.870526
  H     -5.713562    0.412602   -1.470605
  H     -5.428211    0.126862    0.974210
  H     -3.191987   -0.137321    1.937178
  H     -1.196884   -0.729028    2.720440
  H      1.967465    0.538285   -2.076554
  H      4.223583    0.720464   -3.061074
  H      6.015821   -0.418583    0.461638
  H      3.859882   -0.654183    1.598307
  H     -1.468968    0.153514   -1.975016
  H     -3.718850    0.425751   -2.941112

 Multiplicity           Mult            ....    1
 Number of Electrons    NEL             ....  124
 Basis Dimension        Dim             ....  926

ORBITAL ENERGIES
----------------

  NO   OCC          E(Eh)            E(eV)
   0   2.0000     -90.219060     -2454.9854
   1   2.0000     -14.851211      -404.1220
   2   2.0000     -14.846532      -403.9947
   3   2.0000     -10.700494      -291.1752
   4   2.0000     -10.665448      -290.2216
   5   2.0000     -10.659651      -290.0639
   6   2.0000     -10.657561      -290.0070
   7   2.0000     -10.656612      -289.9811
   8   2.0000     -10.651717      -289.8479
   9   2.0000     -10.634538      -289.3805
  10   2.0000     -10.631907      -289.3089
  11   2.0000     -10.628328      -289.2115
  12   2.0000     -10.620342      -288.9942
  13   2.0000     -10.618981      -288.9572
  14   2.0000     -10.618629      -288.9476
  15   2.0000     -10.617950      -288.9291
  16   2.0000     -10.617468      -288.9160
  17   2.0000      -8.408381      -228.8037
  18   2.0000      -6.254706      -170.1992
  19   2.0000      -6.252240      -170.1321
  20   2.0000      -6.250888      -170.0953
  21   2.0000      -1.117066       -30.3969
  22   2.0000      -1.085171       -29.5290
  23   2.0000      -0.990553       -26.9543
  24   2.0000      -0.954571       -25.9752
  25   2.0000      -0.924303       -25.1516
  26   2.0000      -0.895594       -24.3703
  27   2.0000      -0.882517       -24.0145
  28   2.0000      -0.862358       -23.4660
  29   2.0000      -0.832722       -22.6595
  30   2.0000      -0.752326       -20.4718
  31   2.0000      -0.738763       -20.1028
  32   2.0000      -0.714337       -19.4381
  33   2.0000      -0.698533       -19.0080
  34   2.0000      -0.667093       -18.1525
  35   2.0000      -0.644982       -17.5509
  36   2.0000      -0.612146       -16.6573
  37   2.0000      -0.592159       -16.1135
  38   2.0000      -0.568859       -15.4794
  39   2.0000      -0.551561       -15.0087
  40   2.0000      -0.545470       -14.8430
  41   2.0000      -0.525482       -14.2991
  42   2.0000      -0.519810       -14.1447
  43   2.0000      -0.507671       -13.8144
  44   2.0000      -0.503011       -13.6876
  45   2.0000      -0.491534       -13.3753
  46   2.0000      -0.488807       -13.3011
  47   2.0000      -0.472922       -12.8689
  48   2.0000      -0.469521       -12.7763
  49   2.0000      -0.444059       -12.0835
  50   2.0000      -0.435842       -11.8599
  51   2.0000      -0.430303       -11.7091
  52   2.0000      -0.411122       -11.1872
  53   2.0000      -0.403685       -10.9848
  54   2.0000      -0.368715       -10.0333
  55   2.0000      -0.352751        -9.5989
  56   2.0000      -0.346895        -9.4395
  57   2.0000      -0.338477        -9.2104
  58   2.0000      -0.311000        -8.4627
  59   2.0000      -0.306878        -8.3506
  60   2.0000      -0.296070        -8.0565
  61   2.0000      -0.254726        -6.9315
  62   0.0000      -0.027578        -0.7504
  63   0.0000       0.007396         0.2013
  64   0.0000       0.022353         0.6083
  65   0.0000       0.024887         0.6772
  66   0.0000       0.030560         0.8316

MULLIKEN ATOMIC CHARGES
-----------------------
   0 C :   -0.267359
   1 C :   -0.605090
   2 C :   -0.588288
   3 C :    1.744538
   4 C :    0.507537
   5 C :   -1.065039
   6 S :    0.042919
   7 C :    0.397992
   8 C :    1.499745
   9 C :   -0.227333
  10 C :   -0.403699
  11 N :   -0.394581
  12 C :   -0.407360
  13 C :   -0.431227
  14 N :   -0.857362
  15 C :   -0.282340
  16 C :   -0.570036
  17 H :    0.239110
  18 H :    0.250162
  19 H :    0.082024
  20 H :    0.172165
  21 H :    0.110210
  22 H :    0.304409
  23 H :    0.308600
  24 H :    0.073041
  25 H :    0.133095
  26 H :    0.234171
Sum of atomic charges:   -0.0000000

LOEWDIN ATOMIC CHARGES
----------------------
   0 C :   -0.146311
   1 C :   -0.130358
   2 C :   -0.060808
   3 C :   -0.351499
   4 C :   -0.554053
   5 C :   -0.335278
   6 S :    1.227741
   7 C :   -0.735937
   8 C :   -0.398593
   9 C :   -0.026299
  10 C :   -0.242793
  11 N :    0.153310
  12 C :   -0.244658
  13 C :   -0.051966
  14 N :    0.277955
  15 C :   -0.060384
  16 C :   -0.129615
  17 H :    0.170321
  18 H :    0.172334
  19 H :    0.197183
  20 H :    0.160343
  21 H :    0.197889
  22 H :    0.173050
  23 H :    0.173192
  24 H :    0.195500
  25 H :    0.197673
  26 H :    0.172062

  Mayer bond orders larger than 0.100000
B(  0-C ,  1-C ) :   1.1937 B(  0-C ,  4-C ) :   0.1192 B(  0-C , 16-C ) :   1.1773
B(  0-C , 17-H ) :   0.9610 B(  1-C ,  2-C ) :   1.2273 B(  1-C ,  3-C ) :  -0.1634
B(  1-C , 16-C ) :   0.1185 B(  1-C , 18-H ) :   0.9450 B(  2-C ,  3-C ) :   0.6825
B(  2-C , 14-N ) :   0.1254 B(  2-C , 15-C ) :  -0.2437 B(  2-C , 19-H ) :   1.1897
B(  3-C ,  4-C ) :   0.2926 B(  3-C ,  5-C ) :  -0.1180 B(  3-C , 15-C ) :   0.6741
B(  3-C , 16-C ) :  -0.1894 B(  3-C , 19-H ) :  -0.1322 B(  3-C , 25-H ) :  -0.1535
B(  4-C ,  5-C ) :   0.8029 B(  4-C ,  6-S ) :   0.1054 B(  4-C , 14-N ) :   0.7735
B(  4-C , 15-C ) :   0.1118 B(  4-C , 20-H ) :  -0.1784 B(  5-C ,  6-S ) :   1.1173
B(  5-C , 20-H ) :   1.1769 B(  6-S ,  7-C ) :   0.4751 B(  6-S ,  8-C ) :   0.2005
B(  6-S , 14-N ) :   0.1906 B(  7-C , 13-C ) :   0.1299 B(  7-C , 14-N ) :   1.0080
B(  8-C ,  9-C ) :   0.8689 B(  8-C , 10-C ) :  -0.1413 B(  8-C , 12-C ) :  -0.1262
B(  8-C , 13-C ) :   0.7768 B(  8-C , 21-H ) :  -0.1403 B(  8-C , 24-H ) :  -0.1777
B(  9-C , 10-C ) :   0.9018 B(  9-C , 13-C ) :  -0.2646 B(  9-C , 21-H ) :   1.1908
B( 10-C , 11-N ) :   1.0288 B( 10-C , 12-C ) :   0.1230 B( 10-C , 13-C ) :   0.1254
B( 10-C , 22-H ) :   0.8829 B( 11-N , 12-C ) :   1.0166 B( 12-C , 13-C ) :   0.8668
B( 12-C , 23-H ) :   0.8960 B( 13-C , 14-N ) :   0.1303 B( 13-C , 24-H ) :   1.2329
B( 15-C , 16-C ) :   1.1807 B( 15-C , 25-H ) :   1.1445 B( 16-C , 26-H ) :   0.9747

MP2 TOTAL ENERGY:    -1046.806492615 Eh

-----------------------------------------------------------------------------
         ABSORPTION SPECTRUM VIA TRANSITION ELECTRIC DIPOLE MOMENTS
-----------------------------------------------------------------------------
State   Energy    Wavelength  fosc         T2        TX        TY        TZ
        (cm-1)      (nm)                 (au**2)    (au)      (au)      (au)
-----------------------------------------------------------------------------
   1   31412.5    318.3   0.311902151   3.26883  -1.48503  -0.23149   1.00495
   2   38426.6    260.2   0.652727395   5.59210   2.19490  -0.26759   0.83839
   3   38529.8    259.5   0.067554641   0.57721  -0.46860  -0.17502   0.57183
   4   36922.7    270.8   0.004707388   0.04197   0.04778   0.19267   0.05066
   5   39464.7    253.4   0.037282769   0.31101   0.55682  -0.00442  -0.03073
   6   39289.7    254.5   0.002061579   0.01727  -0.12641   0.03572  -0.00431
   7   43920.1    227.7   0.011423247   0.08563   0.28412  -0.05605   0.04195
   8   41967.4    238.3   0.363143256   2.84866  -1.68681   0.03478   0.04602
   9   41903.7    238.6   0.058293454   0.45798   0.45452  -0.08310   0.49445
  10   46110.9    216.9   0.006031459   0.04306   0.20630  -0.00821   0.02086

Dispersion correction           -0.029722469
FINAL SINGLE POINT ENERGY     -1045.770578359903

DIPOLE MOMENT
-------------
                                X             Y             Z
Electronic contribution:      6.50356      -1.38517       5.05449
Nuclear contribution   :     -7.72385       1.09532      -3.81528
                        -----------------------------------------
Total Dipole Moment    :     -1.22029      -0.28985       1.23921
                        -----------------------------------------
Magnitude (a.u.)       :      1.76316
Magnitude (Debye)      :      4.48161

Rotational constants in cm-1:     0.037065     0.007005     0.005899
Rotational constants in MHz :  1111.168608   210.000563   176.859255

                             ****ORCA TERMINATED NORMALLY****
TOTAL RUN TIME: 0 days 3 hours 37 minutes 7 seconds 335 msec
