                         Program Version 5.0.2 -  RELEASE  -
|  1> ! pbe0 aug-cc-PVTZ RIJCOSX Opt
|  2> %maxcore 4000
|  3> %basis
|  4>  AuxJ "aug-cc-PVTZ/JK"
|  5>  AuxC "aug-cc-PVTZ/C"
|  6>  newGTO H "cc-PVTZ" end
|  7>  newAuxJGTO H "cc-PVTZ/JK" end
|  8>  newAuxCGTO H "cc-PVTZ/C" end
|  9> end
| 10> %cpcm
| 11>  SMD true
| 12>  SMDsolvent "ethanol"
| 13> end
| 14> %pal nprocs 4 end
| 15> * xyz 0 1
| 16> C         -4.68160        0.30280       -1.06730
| 17> C         -4.55820        0.00650        0.28040
| 18> C         -3.30890       -0.15020        0.84950
| 19> C         -2.15940       -0.01140        0.07290
| 20> C         -0.82380       -0.16900        0.63620
| 21> C         -0.50840       -0.46110        1.94080
| 22> S          1.18340       -0.55520        2.16840
| 23> C          1.37840       -0.18700        0.45350
| 24> C          2.68340       -0.08810       -0.15860
| 25> C          2.79850        0.20500       -1.51980
| 26> C          4.06540        0.29120       -2.06860
| 27> N          5.17790        0.11120       -1.37550
| 28> C          5.06900       -0.16630       -0.08730
| 29> C          3.85700       -0.27780        0.57150
| 30> N          0.26230       -0.02340       -0.16410
| 31> C         -2.29340        0.28700       -1.28310
| 32> C         -3.54470        0.44250       -1.84640
| 33> H         -5.66040        0.42420       -1.50710
| 34> H         -5.44200       -0.10330        0.89190
| 35> H         -3.22970       -0.38090        1.90090
| 36> H         -1.16210       -0.62500        2.77260
| 37> H          1.91090        0.35700       -2.11140
| 38> H          4.20260        0.51600       -3.11820
| 39> H          6.00300       -0.30580        0.44110
| 40> H          3.81790       -0.50630        1.62610
| 41> H         -1.40130        0.39350       -1.88020
| 42> H         -3.63550        0.67350       -2.89770
| 43> *
| 44>
| 45>
| 46> $new_job
| 47> ! pbe0 aug-cc-PVTZ RIJCOSX SP
| 48> %maxcore 4000
| 49> %basis
| 50>  AuxJ "aug-cc-PVTZ/JK"
| 51>  AuxC "aug-cc-PVTZ/C"
| 52>  newGTO H "cc-PVTZ" end
| 53>  newAuxJGTO H "cc-PVTZ/JK" end
| 54>  newAuxCGTO H "cc-PVTZ/C" end
| 55> end
| 56> %cpcm
| 57>  SMD true
| 58>  SMDsolvent "ethanol"
| 59> end
| 60> %pal nprocs 4 end
| 61> %tddft
| 62>  nroots 10
| 63>  maxdim 7
| 64> end
| 65> * xyzfile 0 1
| 66>
| 67>                          ****END OF INPUT****
 Total Charge           Charge          ....    0
 Multiplicity           Mult            ....    1
 Number of Electrons    NEL             ....  124
FINAL SINGLE POINT ENERGY     -1046.561491391581
FINAL SINGLE POINT ENERGY     -1046.562908219829
FINAL SINGLE POINT ENERGY     -1046.563209943275
FINAL SINGLE POINT ENERGY     -1046.563284558059
FINAL SINGLE POINT ENERGY     -1046.563294618466
FINAL SINGLE POINT ENERGY     -1046.563312092043
FINAL SINGLE POINT ENERGY     -1046.563322013916
FINAL SINGLE POINT ENERGY     -1046.563325128885
FINAL SINGLE POINT ENERGY     -1046.563335507145
FINAL SINGLE POINT ENERGY     -1046.563340115504
                    ***********************HURRAY********************
FINAL SINGLE POINT ENERGY     -1046.563341859459

CARTESIAN COORDINATES (ANGSTROEM)
---------------------------------
  C     -4.728066    0.291635   -1.046523
  C     -4.564055    0.144119    0.325124
  C     -3.298198   -0.008236    0.866135
  C     -2.169230   -0.018445    0.043642
  C     -0.821533   -0.188184    0.604327
  C     -0.526924   -0.531248    1.897470
  S      1.158144   -0.625543    2.119014
  C      1.389635   -0.200405    0.453318
  C      2.715171   -0.074365   -0.149042
  C      2.847129    0.328003   -1.476641
  C      4.114035    0.430698   -2.020716
  N      5.234896    0.167427   -1.348849
  C      5.101915   -0.215656   -0.080028
  C      3.882283   -0.350066    0.558571
  N      0.276304   -0.008869   -0.189875
  C     -2.343955    0.133106   -1.332888
  C     -3.612351    0.285760   -1.871834
  H     -5.719445    0.412323   -1.467585
  H     -5.427823    0.151828    0.979930
  H     -3.191063   -0.112246    1.939437
  H     -1.197392   -0.738645    2.717178
  H      1.975434    0.557674   -2.074475
  H      4.231572    0.742290   -3.053836
  H      6.018034   -0.429798    0.461106
  H      3.861811   -0.670338    1.593627
  H     -1.477987    0.127044   -1.982442
  H     -3.728041    0.399736   -2.943646

 Multiplicity           Mult            ....    1
 Number of Electrons    NEL             ....  124
 Basis Dimension        Dim             ....  926

ORBITAL ENERGIES
----------------

  NO   OCC          E(Eh)            E(eV)
   0   2.0000     -89.098210     -2424.4856
   1   2.0000     -14.399335      -391.8258
   2   2.0000     -14.392936      -391.6517
   3   2.0000     -10.307632      -280.4849
   4   2.0000     -10.276247      -279.6309
   5   2.0000     -10.270116      -279.4641
   6   2.0000     -10.264906      -279.3223
   7   2.0000     -10.264752      -279.3181
   8   2.0000     -10.263960      -279.2965
   9   2.0000     -10.247119      -278.8383
  10   2.0000     -10.243111      -278.7292
  11   2.0000     -10.239720      -278.6370
  12   2.0000     -10.231627      -278.4167
  13   2.0000     -10.229947      -278.3710
  14   2.0000     -10.229791      -278.3668
  15   2.0000     -10.229244      -278.3519
  16   2.0000     -10.228748      -278.3384
  17   2.0000      -8.055762      -219.2084
  18   2.0000      -5.992183      -163.0556
  19   2.0000      -5.988676      -162.9601
  20   2.0000      -5.987119      -162.9178
  21   2.0000      -1.013738       -27.5852
  22   2.0000      -0.981506       -26.7081
  23   2.0000      -0.893564       -24.3151
  24   2.0000      -0.860439       -23.4137
  25   2.0000      -0.837394       -22.7866
  26   2.0000      -0.806276       -21.9399
  27   2.0000      -0.792949       -21.5772
  28   2.0000      -0.773785       -21.0558
  29   2.0000      -0.748533       -20.3686
  30   2.0000      -0.675864       -18.3912
  31   2.0000      -0.664416       -18.0797
  32   2.0000      -0.641458       -17.4549
  33   2.0000      -0.625778       -17.0283
  34   2.0000      -0.598999       -16.2996
  35   2.0000      -0.579855       -15.7786
  36   2.0000      -0.550660       -14.9842
  37   2.0000      -0.531124       -14.4526
  38   2.0000      -0.508581       -13.8392
  39   2.0000      -0.490010       -13.3338
  40   2.0000      -0.485063       -13.1992
  41   2.0000      -0.467707       -12.7270
  42   2.0000      -0.462554       -12.5867
  43   2.0000      -0.459460       -12.5025
  44   2.0000      -0.444793       -12.1034
  45   2.0000      -0.434485       -11.8229
  46   2.0000      -0.434095       -11.8123
  47   2.0000      -0.425895       -11.5892
  48   2.0000      -0.420155       -11.4330
  49   2.0000      -0.397423       -10.8144
  50   2.0000      -0.394076       -10.7234
  51   2.0000      -0.376890       -10.2557
  52   2.0000      -0.359781        -9.7901
  53   2.0000      -0.352592        -9.5945
  54   2.0000      -0.337946        -9.1960
  55   2.0000      -0.316245        -8.6055
  56   2.0000      -0.303377        -8.2553
  57   2.0000      -0.286316        -7.7911
  58   2.0000      -0.284335        -7.7372
  59   2.0000      -0.282873        -7.6974
  60   2.0000      -0.272322        -7.4103
  61   2.0000      -0.235882        -6.4187
  62   0.0000      -0.073624        -2.0034
  63   0.0000      -0.040507        -1.1023
  64   0.0000      -0.018853        -0.5130
  65   0.0000      -0.011279        -0.3069
  66   0.0000       0.004280         0.1165

MULLIKEN ATOMIC CHARGES
-----------------------
   0 C :   -0.276442
   1 C :   -0.489876
   2 C :   -0.607137
   3 C :    1.437255
   4 C :    0.582086
   5 C :   -0.934932
   6 S :    0.065658
   7 C :    0.376955
   8 C :    1.275326
   9 C :   -0.344483
  10 C :   -0.250565
  11 N :   -0.433604
  12 C :   -0.265958
  13 C :   -0.508928
  14 N :   -0.805221
  15 C :   -0.403718
  16 C :   -0.479299
  17 H :    0.255306
  18 H :    0.263465
  19 H :    0.122051
  20 H :    0.177187
  21 H :    0.130701
  22 H :    0.292409
  23 H :    0.296227
  24 H :    0.110056
  25 H :    0.159177
  26 H :    0.256307
Sum of atomic charges:    0.0000000

LOEWDIN ATOMIC CHARGES
----------------------
   0 C :   -0.147006
   1 C :   -0.130820
   2 C :   -0.063029
   3 C :   -0.352663
   4 C :   -0.554466
   5 C :   -0.335302
   6 S :    1.230644
   7 C :   -0.739818
   8 C :   -0.401691
   9 C :   -0.029445
  10 C :   -0.246209
  11 N :    0.158139
  12 C :   -0.248076
  13 C :   -0.054583
  14 N :    0.283184
  15 C :   -0.062785
  16 C :   -0.130229
  17 H :    0.171809
  18 H :    0.173879
  19 H :    0.198923
  20 H :    0.162668
  21 H :    0.199307
  22 H :    0.173643
  23 H :    0.173750
  24 H :    0.197488
  25 H :    0.199035
  26 H :    0.173654

  Mayer bond orders larger than 0.100000
B(  0-C ,  1-C ) :   1.2741 B(  0-C ,  3-C ) :  -0.1302 B(  0-C ,  4-C ) :   0.1265
B(  0-C , 16-C ) :   1.2694 B(  0-C , 17-H ) :   0.8974 B(  1-C ,  2-C ) :   1.2860
B(  1-C ,  3-C ) :  -0.1088 B(  1-C , 18-H ) :   0.8872 B(  2-C ,  3-C ) :   0.8397
B(  2-C , 14-N ) :   0.1174 B(  2-C , 15-C ) :  -0.1484 B(  2-C , 19-H ) :   1.0798
B(  3-C ,  4-C ) :   0.3737 B(  3-C ,  5-C ) :  -0.1581 B(  3-C , 15-C ) :   0.8007
B(  3-C , 16-C ) :  -0.1333 B(  4-C ,  5-C ) :   1.0059 B(  4-C , 14-N ) :   0.8582
B(  4-C , 20-H ) :  -0.1159 B(  5-C ,  6-S ) :   1.0650 B(  5-C , 14-N ) :   0.1040
B(  5-C , 20-H ) :   1.1124 B(  6-S ,  7-C ) :   0.6921 B(  6-S , 14-N ) :   0.1823
B(  7-C ,  8-C ) :   0.1781 B(  7-C , 14-N ) :   1.0740 B(  8-C ,  9-C ) :   1.0345
B(  8-C , 10-C ) :  -0.1291 B(  8-C , 12-C ) :  -0.1227 B(  8-C , 13-C ) :   0.9611
B(  9-C , 10-C ) :   1.0691 B(  9-C , 11-N ) :   0.1185 B(  9-C , 13-C ) :  -0.1945
B(  9-C , 21-H ) :   1.1214 B( 10-C , 11-N ) :   1.0744 B( 10-C , 12-C ) :   0.1237
B( 10-C , 13-C ) :   0.1343 B( 10-C , 22-H ) :   0.8665 B( 11-N , 12-C ) :   1.0846
B( 11-N , 13-C ) :   0.1006 B( 12-C , 13-C ) :   1.0361 B( 12-C , 23-H ) :   0.8788
B( 13-C , 14-N ) :   0.1334 B( 13-C , 24-H ) :   1.1294 B( 15-C , 16-C ) :   1.3000
B( 15-C , 25-H ) :   1.0584 B( 16-C , 26-H ) :   0.9004

-----------------------------------------------------------------------------
         ABSORPTION SPECTRUM VIA TRANSITION ELECTRIC DIPOLE MOMENTS
-----------------------------------------------------------------------------
State   Energy    Wavelength  fosc         T2        TX        TY        TZ
        (cm-1)      (nm)                 (au**2)    (au)      (au)      (au)
-----------------------------------------------------------------------------
   1   30897.8    323.6   0.294569596   3.13860  -1.56186  -0.18335   0.81583
   2   35976.7    278.0   0.003240063   0.02965  -0.02289  -0.16435  -0.04599
   3   37602.7    265.9   0.304987243   2.67017  -1.43242   0.23699  -0.74977
   4   38366.2    260.6   0.185833714   1.59460   1.17601  -0.15144   0.43434
   5   38860.9    257.3   0.224818559   1.90456  -1.37444  -0.03422   0.11956
   6   39075.2    255.9   0.013668334   0.11516   0.31623   0.00251   0.12308
   7   40373.9    247.7   0.017438764   0.14220  -0.30656   0.05232  -0.21326
   8   40992.2    243.9   0.397599173   3.19316  -1.72911  -0.07543   0.44456
   9   42918.1    233.0   0.094241378   0.72290   0.43850  -0.23384   0.68988
  10   43963.5    227.5   0.000052302   0.00039  -0.00660   0.01527  -0.01072

FINAL SINGLE POINT ENERGY     -1046.422561148173

DIPOLE MOMENT
-------------
                                X             Y             Z
Electronic contribution:      6.45503      -1.39688       5.05263
Nuclear contribution   :     -7.72755       1.10238      -3.81052
                        -----------------------------------------
Total Dipole Moment    :     -1.27251      -0.29451       1.24211
                        -----------------------------------------
Magnitude (a.u.)       :      1.80246
Magnitude (Debye)      :      4.58148

Rotational constants in cm-1:     0.037085     0.006990     0.005891
Rotational constants in MHz :  1111.786945   209.561355   176.615442

                             ****ORCA TERMINATED NORMALLY****
TOTAL RUN TIME: 0 days 2 hours 30 minutes 58 seconds 557 msec
