                         Program Version 5.0.2 -  RELEASE  -
|  1> ! wb97x-d3 aug-cc-PVTZ RIJCOSX Opt
|  2> %maxcore 4000
|  3> %basis
|  4>  AuxJ "aug-cc-PVTZ/JK"
|  5>  AuxC "aug-cc-PVTZ/C"
|  6>  newGTO H "cc-PVTZ" end
|  7>  newAuxJGTO H "cc-PVTZ/JK" end
|  8>  newAuxCGTO H "cc-PVTZ/C" end
|  9> end
| 10> %cpcm
| 11>  SMD true
| 12>  SMDsolvent "ethanol"
| 13> end
| 14> %pal nprocs 4 end
| 15> * xyz 0 1
| 16> C         -4.68160        0.30280       -1.06730
| 17> C         -4.55820        0.00650        0.28040
| 18> C         -3.30890       -0.15020        0.84950
| 19> C         -2.15940       -0.01140        0.07290
| 20> C         -0.82380       -0.16900        0.63620
| 21> C         -0.50840       -0.46110        1.94080
| 22> S          1.18340       -0.55520        2.16840
| 23> C          1.37840       -0.18700        0.45350
| 24> C          2.68340       -0.08810       -0.15860
| 25> C          2.79850        0.20500       -1.51980
| 26> C          4.06540        0.29120       -2.06860
| 27> N          5.17790        0.11120       -1.37550
| 28> C          5.06900       -0.16630       -0.08730
| 29> C          3.85700       -0.27780        0.57150
| 30> N          0.26230       -0.02340       -0.16410
| 31> C         -2.29340        0.28700       -1.28310
| 32> C         -3.54470        0.44250       -1.84640
| 33> H         -5.66040        0.42420       -1.50710
| 34> H         -5.44200       -0.10330        0.89190
| 35> H         -3.22970       -0.38090        1.90090
| 36> H         -1.16210       -0.62500        2.77260
| 37> H          1.91090        0.35700       -2.11140
| 38> H          4.20260        0.51600       -3.11820
| 39> H          6.00300       -0.30580        0.44110
| 40> H          3.81790       -0.50630        1.62610
| 41> H         -1.40130        0.39350       -1.88020
| 42> H         -3.63550        0.67350       -2.89770
| 43> *
| 44>
| 45>
| 46> $new_job
| 47> ! wb97x-d3 aug-cc-PVTZ RIJCOSX SP
| 48> %maxcore 4000
| 49> %basis
| 50>  AuxJ "aug-cc-PVTZ/JK"
| 51>  AuxC "aug-cc-PVTZ/C"
| 52>  newGTO H "cc-PVTZ" end
| 53>  newAuxJGTO H "cc-PVTZ/JK" end
| 54>  newAuxCGTO H "cc-PVTZ/C" end
| 55> end
| 56> %cpcm
| 57>  SMD true
| 58>  SMDsolvent "ethanol"
| 59> end
| 60> %pal nprocs 4 end
| 61> %tddft
| 62>  nroots 10
| 63>  maxdim 7
| 64> end
| 65> * xyzfile 0 1
| 66>
| 67>                          ****END OF INPUT****
 Total Charge           Charge          ....    0
 Multiplicity           Mult            ....    1
 Number of Electrons    NEL             ....  124
Dispersion correction           -0.009570945
FINAL SINGLE POINT ENERGY     -1047.264103958173
Dispersion correction            ... done
Dispersion correction           -0.009529645
FINAL SINGLE POINT ENERGY     -1047.266055416445
Dispersion correction            ... done
Dispersion correction           -0.009519803
FINAL SINGLE POINT ENERGY     -1047.266494289234
Dispersion correction            ... done
FINAL SINGLE POINT ENERGY     -1047.266598771650
FINAL SINGLE POINT ENERGY     -1047.266627574696
FINAL SINGLE POINT ENERGY     -1047.266679330423
FINAL SINGLE POINT ENERGY     -1047.266700940701
FINAL SINGLE POINT ENERGY     -1047.266709498035
FINAL SINGLE POINT ENERGY     -1047.266711940247
FINAL SINGLE POINT ENERGY     -1047.266716747895
FINAL SINGLE POINT ENERGY     -1047.266725003202
FINAL SINGLE POINT ENERGY     -1047.266739533230
FINAL SINGLE POINT ENERGY     -1047.266717262304
FINAL SINGLE POINT ENERGY     -1047.266743700086
Dispersion correction           -0.009545542
FINAL SINGLE POINT ENERGY     -1047.266744965805
Dispersion correction            ... done
Dispersion correction           -0.009548861
FINAL SINGLE POINT ENERGY     -1047.266744553887
Dispersion correction            ... done
                    ***********************HURRAY********************
Dispersion correction           -0.009548098
FINAL SINGLE POINT ENERGY     -1047.266746873706

CARTESIAN COORDINATES (ANGSTROEM)
---------------------------------
  C     -4.721889    0.294598   -1.048112
  C     -4.527675    0.389493    0.322933
  C     -3.262115    0.219581    0.861653
  C     -2.172813   -0.050446    0.034707
  C     -0.822733   -0.245793    0.597526
  C     -0.537181   -0.658228    1.863929
  S      1.151442   -0.754515    2.087057
  C      1.386406   -0.239068    0.454709
  C      2.719664   -0.061226   -0.141654
  C      2.848485    0.513375   -1.401669
  C      4.112623    0.661832   -1.940398
  N      5.230702    0.286702   -1.319264
  C      5.099412   -0.262726   -0.113577
  C      3.880835   -0.457206    0.511804
  N      0.279921   -0.016616   -0.185291
  C     -2.374796   -0.139619   -1.341097
  C     -3.641158    0.031239   -1.877645
  H     -5.710675    0.428328   -1.468727
  H     -5.363412    0.605795    0.976492
  H     -3.118580    0.314344    1.931061
  H     -1.218712   -0.920497    2.657280
  H      1.978434    0.839201   -1.953616
  H      4.231311    1.107742   -2.921380
  H      6.013791   -0.568639    0.381746
  H      3.858996   -0.919702    1.490411
  H     -1.535471   -0.352029   -1.990196
  H     -3.784511   -0.046320   -2.948179

 Multiplicity           Mult            ....    1
 Number of Electrons    NEL             ....  124
 Basis Dimension        Dim             ....  926

ORBITAL ENERGIES
----------------

  NO   OCC          E(Eh)            E(eV)
   0   2.0000     -89.026443     -2422.5327
   1   2.0000     -14.436865      -392.8471
   2   2.0000     -14.431436      -392.6993
   3   2.0000     -10.362803      -281.9862
   4   2.0000     -10.327910      -281.0367
   5   2.0000     -10.324195      -280.9356
   6   2.0000     -10.319135      -280.7979
   7   2.0000     -10.318257      -280.7740
   8   2.0000     -10.316475      -280.7256
   9   2.0000     -10.299231      -280.2563
  10   2.0000     -10.295833      -280.1639
  11   2.0000     -10.292310      -280.0680
  12   2.0000     -10.284341      -279.8512
  13   2.0000     -10.282812      -279.8095
  14   2.0000     -10.282623      -279.8044
  15   2.0000     -10.282099      -279.7901
  16   2.0000     -10.281543      -279.7750
  17   2.0000      -8.100484      -220.4254
  18   2.0000      -6.054408      -164.7488
  19   2.0000      -6.050537      -164.6435
  20   2.0000      -6.048525      -164.5887
  21   2.0000      -1.104564       -30.0567
  22   2.0000      -1.072726       -29.1904
  23   2.0000      -0.986587       -26.8464
  24   2.0000      -0.952716       -25.9247
  25   2.0000      -0.929339       -25.2886
  26   2.0000      -0.898597       -24.4521
  27   2.0000      -0.886207       -24.1149
  28   2.0000      -0.866648       -23.5827
  29   2.0000      -0.840701       -22.8766
  30   2.0000      -0.765182       -20.8217
  31   2.0000      -0.754336       -20.5265
  32   2.0000      -0.730376       -19.8745
  33   2.0000      -0.715728       -19.4759
  34   2.0000      -0.688384       -18.7319
  35   2.0000      -0.668210       -18.1829
  36   2.0000      -0.638275       -17.3684
  37   2.0000      -0.618894       -16.8410
  38   2.0000      -0.593793       -16.1579
  39   2.0000      -0.577000       -15.7010
  40   2.0000      -0.571988       -15.5646
  41   2.0000      -0.556598       -15.1458
  42   2.0000      -0.549084       -14.9413
  43   2.0000      -0.544189       -14.8081
  44   2.0000      -0.530693       -14.4409
  45   2.0000      -0.519320       -14.1314
  46   2.0000      -0.517312       -14.0768
  47   2.0000      -0.514007       -13.9868
  48   2.0000      -0.502520       -13.6743
  49   2.0000      -0.484726       -13.1901
  50   2.0000      -0.476003       -12.9527
  51   2.0000      -0.459387       -12.5006
  52   2.0000      -0.439020       -11.9464
  53   2.0000      -0.434288       -11.8176
  54   2.0000      -0.415576       -11.3084
  55   2.0000      -0.390696       -10.6314
  56   2.0000      -0.384397       -10.4600
  57   2.0000      -0.366292        -9.9673
  58   2.0000      -0.359415        -9.7802
  59   2.0000      -0.356217        -9.6932
  60   2.0000      -0.345837        -9.4107
  61   2.0000      -0.306918        -8.3517
  62   0.0000      -0.004549        -0.1238
  63   0.0000       0.032007         0.8709
  64   0.0000       0.050018         1.3611
  65   0.0000       0.050887         1.3847
  66   0.0000       0.052979         1.4416

MULLIKEN ATOMIC CHARGES
-----------------------
   0 C :   -0.196045
   1 C :   -0.476505
   2 C :   -0.697917
   3 C :    1.854216
   4 C :    0.386672
   5 C :   -0.989426
   6 S :    0.189765
   7 C :    0.216322
   8 C :    1.534695
   9 C :   -0.381711
  10 C :   -0.329912
  11 N :   -0.385970
  12 C :   -0.308261
  13 C :   -0.559461
  14 N :   -0.693608
  15 C :   -0.565833
  16 C :   -0.516121
  17 H :    0.244432
  18 H :    0.246230
  19 H :    0.118302
  20 H :    0.141466
  21 H :    0.096949
  22 H :    0.303761
  23 H :    0.312980
  24 H :    0.082082
  25 H :    0.127913
  26 H :    0.244986
Sum of atomic charges:    0.0000000

LOEWDIN ATOMIC CHARGES
----------------------
   0 C :   -0.145825
   1 C :   -0.128488
   2 C :   -0.060688
   3 C :   -0.357179
   4 C :   -0.558075
   5 C :   -0.329897
   6 S :    1.229981
   7 C :   -0.744470
   8 C :   -0.397194
   9 C :   -0.030784
  10 C :   -0.240068
  11 N :    0.153610
  12 C :   -0.242192
  13 C :   -0.052906
  14 N :    0.280511
  15 C :   -0.061576
  16 C :   -0.128339
  17 H :    0.170680
  18 H :    0.172141
  19 H :    0.198222
  20 H :    0.162645
  21 H :    0.198480
  22 H :    0.172362
  23 H :    0.172489
  24 H :    0.196295
  25 H :    0.198173
  26 H :    0.172093

  Mayer bond orders larger than 0.100000
B(  0-C ,  1-C ) :   1.1541 B(  0-C ,  4-C ) :   0.1258 B(  0-C , 16-C ) :   1.1453
B(  0-C , 17-H ) :   0.9494 B(  1-C ,  2-C ) :   1.1037 B(  1-C , 16-C ) :   0.1109
B(  1-C , 18-H ) :   0.9508 B(  2-C ,  3-C ) :   0.3931 B(  2-C ,  4-C ) :   0.1630
B(  2-C , 19-H ) :   1.1783 B(  3-C ,  4-C ) :   0.1517 B(  3-C , 14-N ) :  -0.1234
B(  3-C , 15-C ) :   0.3620 B(  3-C , 16-C ) :  -0.1285 B(  3-C , 19-H ) :  -0.1706
B(  3-C , 25-H ) :  -0.1916 B(  4-C ,  5-C ) :   0.7776 B(  4-C ,  6-S ) :   0.1240
B(  4-C , 14-N ) :   0.9877 B(  4-C , 15-C ) :   0.1819 B(  4-C , 20-H ) :  -0.1914
B(  5-C ,  6-S ) :   0.9752 B(  5-C , 20-H ) :   1.2283 B(  6-S ,  7-C ) :   0.5729
B(  6-S , 14-N ) :   0.1774 B(  7-C ,  8-C ) :   0.1453 B(  7-C ,  9-C ) :   0.1307
B(  7-C , 14-N ) :   1.2105 B(  8-C ,  9-C ) :   0.7439 B(  8-C , 10-C ) :  -0.1341
B(  8-C , 12-C ) :  -0.1149 B(  8-C , 13-C ) :   0.6335 B(  8-C , 21-H ) :  -0.1818
B(  8-C , 24-H ) :  -0.2104 B(  9-C , 10-C ) :   0.8635 B(  9-C , 13-C ) :  -0.1181
B(  9-C , 21-H ) :   1.2276 B( 10-C , 11-N ) :   0.9751 B( 10-C , 12-C ) :   0.1549
B( 10-C , 13-C ) :   0.1222 B( 10-C , 22-H ) :   0.8768 B( 11-N , 12-C ) :   0.9889
B( 12-C , 13-C ) :   0.8510 B( 12-C , 23-H ) :   0.8766 B( 13-C , 14-N ) :   0.1323
B( 13-C , 24-H ) :   1.2486 B( 15-C , 16-C ) :   1.1549 B( 15-C , 25-H ) :   1.1919
B( 16-C , 26-H ) :   0.9518

-----------------------------------------------------------------------------
         ABSORPTION SPECTRUM VIA TRANSITION ELECTRIC DIPOLE MOMENTS
-----------------------------------------------------------------------------
State   Energy    Wavelength  fosc         T2        TX        TY        TZ
        (cm-1)      (nm)                 (au**2)    (au)      (au)      (au)
-----------------------------------------------------------------------------
   1   36418.0    274.6   0.400212248   3.61784   1.57618   0.32173  -1.01489
   2   40473.5    247.1   0.005252120   0.04272   0.02752   0.19067   0.07488
   3   41860.8    238.9   0.156767608   1.23289   0.71299  -0.36976   0.76669
   4   42413.3    235.8   0.017467351   0.13558  -0.34596  -0.04220   0.11879
   5   42704.1    234.2   0.368145651   2.83809  -1.63998   0.09079  -0.37459
   6   42940.6    232.9   0.231859678   1.77760   1.25910  -0.13659   0.41666
   7   46682.6    214.2   0.000076383   0.00054   0.02304   0.00005  -0.00277
   8   47215.5    211.8   0.386027753   2.69159   1.63939  -0.05771   0.02559
   9   48837.0    204.8   0.006004173   0.04047  -0.15033   0.10156  -0.08695
  10   51083.4    195.8   0.066849242   0.43082  -0.06356   0.06892   0.64964

Dispersion correction           -0.009548098
FINAL SINGLE POINT ENERGY     -1047.100813955036

DIPOLE MOMENT
-------------
                                X             Y             Z
Electronic contribution:      6.47595      -1.65432       5.02538
Nuclear contribution   :     -7.71371       1.26585      -3.80666
                        -----------------------------------------
Total Dipole Moment    :     -1.23776      -0.38847       1.21872
                        -----------------------------------------
Magnitude (a.u.)       :      1.77995
Magnitude (Debye)      :      4.52428

Rotational constants in cm-1:     0.036823     0.006967     0.005924
Rotational constants in MHz :  1103.926716   208.869833   177.591282

                             ****ORCA TERMINATED NORMALLY****
TOTAL RUN TIME: 0 days 6 hours 4 minutes 49 seconds 85 msec
