                         Program Version 5.0.2 -  RELEASE  -
|  1> ! x3lyp aug-cc-PVTZ RIJCOSX Opt
|  2> %maxcore 4000
|  3> %basis
|  4>  AuxJ "aug-cc-PVTZ/JK"
|  5>  AuxC "aug-cc-PVTZ/C"
|  6>  newGTO H "cc-PVTZ" end
|  7>  newAuxJGTO H "cc-PVTZ/JK" end
|  8>  newAuxCGTO H "cc-PVTZ/C" end
|  9> end
| 10> %cpcm
| 11>  SMD true
| 12>  SMDsolvent "ethanol"
| 13> end
| 14> %pal nprocs 4 end
| 15> * xyz 0 1
| 16> C         -4.68160        0.30280       -1.06730
| 17> C         -4.55820        0.00650        0.28040
| 18> C         -3.30890       -0.15020        0.84950
| 19> C         -2.15940       -0.01140        0.07290
| 20> C         -0.82380       -0.16900        0.63620
| 21> C         -0.50840       -0.46110        1.94080
| 22> S          1.18340       -0.55520        2.16840
| 23> C          1.37840       -0.18700        0.45350
| 24> C          2.68340       -0.08810       -0.15860
| 25> C          2.79850        0.20500       -1.51980
| 26> C          4.06540        0.29120       -2.06860
| 27> N          5.17790        0.11120       -1.37550
| 28> C          5.06900       -0.16630       -0.08730
| 29> C          3.85700       -0.27780        0.57150
| 30> N          0.26230       -0.02340       -0.16410
| 31> C         -2.29340        0.28700       -1.28310
| 32> C         -3.54470        0.44250       -1.84640
| 33> H         -5.66040        0.42420       -1.50710
| 34> H         -5.44200       -0.10330        0.89190
| 35> H         -3.22970       -0.38090        1.90090
| 36> H         -1.16210       -0.62500        2.77260
| 37> H          1.91090        0.35700       -2.11140
| 38> H          4.20260        0.51600       -3.11820
| 39> H          6.00300       -0.30580        0.44110
| 40> H          3.81790       -0.50630        1.62610
| 41> H         -1.40130        0.39350       -1.88020
| 42> H         -3.63550        0.67350       -2.89770
| 43> *
| 44>
| 45>
| 46> $new_job
| 47> ! x3lyp aug-cc-PVTZ RIJCOSX SP
| 48> %maxcore 4000
| 49> %basis
| 50>  AuxJ "aug-cc-PVTZ/JK"
| 51>  AuxC "aug-cc-PVTZ/C"
| 52>  newGTO H "cc-PVTZ" end
| 53>  newAuxJGTO H "cc-PVTZ/JK" end
| 54>  newAuxCGTO H "cc-PVTZ/C" end
| 55> end
| 56> %cpcm
| 57>  SMD true
| 58>  SMDsolvent "ethanol"
| 59> end
| 60> %pal nprocs 4 end
| 61> %tddft
| 62>  nroots 10
| 63>  maxdim 7
| 64> end
| 65> * xyzfile 0 1
| 66>
| 67>                          ****END OF INPUT****
 Total Charge           Charge          ....    0
 Multiplicity           Mult            ....    1
 Number of Electrons    NEL             ....  124
FINAL SINGLE POINT ENERGY     -1046.822520932560
FINAL SINGLE POINT ENERGY     -1046.824483900784
FINAL SINGLE POINT ENERGY     -1046.824705988888
FINAL SINGLE POINT ENERGY     -1046.824772315514
FINAL SINGLE POINT ENERGY     -1046.824783626196
FINAL SINGLE POINT ENERGY     -1046.824797253933
FINAL SINGLE POINT ENERGY     -1046.824804500650
FINAL SINGLE POINT ENERGY     -1046.824798220091
FINAL SINGLE POINT ENERGY     -1046.824824190980
FINAL SINGLE POINT ENERGY     -1046.824835012182
FINAL SINGLE POINT ENERGY     -1046.824839049523
FINAL SINGLE POINT ENERGY     -1046.824839633969
FINAL SINGLE POINT ENERGY     -1046.824831315350
FINAL SINGLE POINT ENERGY     -1046.824842017124
                    ***********************HURRAY********************
FINAL SINGLE POINT ENERGY     -1046.824842175901

CARTESIAN COORDINATES (ANGSTROEM)
---------------------------------
  C     -4.740806    0.296649   -1.048585
  C     -4.568785    0.221991    0.330360
  C     -3.300919    0.062980    0.871136
  C     -2.176294   -0.028005    0.042148
  C     -0.827014   -0.209166    0.606420
  C     -0.535580   -0.578337    1.893226
  S      1.159528   -0.678418    2.125463
  C      1.396187   -0.216160    0.453714
  C      2.724935   -0.072472   -0.147154
  C      2.858441    0.379842   -1.462086
  C      4.125790    0.499455   -2.006581
  N      5.249741    0.206940   -1.344129
  C      5.117771   -0.224313   -0.086678
  C      3.895905   -0.378657    0.547802
  N      0.279947   -0.013965   -0.183377
  C     -2.360315    0.051843   -1.342374
  C     -3.630629    0.211835   -1.880974
  H     -5.730126    0.422630   -1.468363
  H     -5.424741    0.293705    0.988635
  H     -3.187748    0.021436    1.946098
  H     -1.209261   -0.805960    2.702096
  H      1.989052    0.634674   -2.049239
  H      4.242543    0.848489   -3.025643
  H      6.032347   -0.460941    0.443672
  H      3.876626   -0.737678    1.567869
  H     -1.504370   -0.017159   -1.997992
  H     -3.751925    0.268362   -2.954965

 Multiplicity           Mult            ....    1
 Number of Electrons    NEL             ....  124
 Basis Dimension        Dim             ....  926

ORBITAL ENERGIES
----------------

  NO   OCC          E(Eh)            E(eV)
   0   2.0000     -89.001525     -2421.8546
   1   2.0000     -14.355086      -390.6218
   2   2.0000     -14.349464      -390.4688
   3   2.0000     -10.275670      -279.6152
   4   2.0000     -10.244568      -278.7689
   5   2.0000     -10.238158      -278.5945
   6   2.0000     -10.234201      -278.4868
   7   2.0000     -10.233384      -278.4645
   8   2.0000     -10.231717      -278.4192
   9   2.0000     -10.214949      -277.9629
  10   2.0000     -10.211625      -277.8725
  11   2.0000     -10.208317      -277.7824
  12   2.0000     -10.199513      -277.5429
  13   2.0000     -10.198039      -277.5028
  14   2.0000     -10.197888      -277.4986
  15   2.0000     -10.197355      -277.4841
  16   2.0000     -10.196883      -277.4713
  17   2.0000      -8.006167      -217.8589
  18   2.0000      -5.963274      -162.2689
  19   2.0000      -5.959787      -162.1741
  20   2.0000      -5.957989      -162.1251
  21   2.0000      -0.986790       -26.8519
  22   2.0000      -0.956851       -26.0372
  23   2.0000      -0.869956       -23.6727
  24   2.0000      -0.837953       -22.8019
  25   2.0000      -0.814976       -22.1766
  26   2.0000      -0.785238       -21.3674
  27   2.0000      -0.773210       -21.0401
  28   2.0000      -0.753848       -20.5132
  29   2.0000      -0.729026       -19.8378
  30   2.0000      -0.658822       -17.9274
  31   2.0000      -0.646890       -17.6028
  32   2.0000      -0.624661       -16.9979
  33   2.0000      -0.609672       -16.5900
  34   2.0000      -0.584130       -15.8950
  35   2.0000      -0.564277       -15.3548
  36   2.0000      -0.534454       -14.5432
  37   2.0000      -0.516871       -14.0648
  38   2.0000      -0.495449       -13.4818
  39   2.0000      -0.478187       -13.0121
  40   2.0000      -0.473358       -12.8807
  41   2.0000      -0.455604       -12.3976
  42   2.0000      -0.450353       -12.2547
  43   2.0000      -0.442495       -12.0409
  44   2.0000      -0.435110       -11.8399
  45   2.0000      -0.424115       -11.5407
  46   2.0000      -0.423461       -11.5230
  47   2.0000      -0.411316       -11.1925
  48   2.0000      -0.408567       -11.1177
  49   2.0000      -0.386370       -10.5137
  50   2.0000      -0.379086       -10.3154
  51   2.0000      -0.368608       -10.0303
  52   2.0000      -0.351268        -9.5585
  53   2.0000      -0.344618        -9.3775
  54   2.0000      -0.324769        -8.8374
  55   2.0000      -0.303062        -8.2467
  56   2.0000      -0.291985        -7.9453
  57   2.0000      -0.275067        -7.4849
  58   2.0000      -0.274706        -7.4751
  59   2.0000      -0.271740        -7.3944
  60   2.0000      -0.260983        -7.1017
  61   2.0000      -0.226185        -6.1548
  62   0.0000      -0.073413        -1.9977
  63   0.0000      -0.039545        -1.0761
  64   0.0000      -0.019722        -0.5367
  65   0.0000      -0.012010        -0.3268
  66   0.0000      -0.002081        -0.0566

MULLIKEN ATOMIC CHARGES
-----------------------
   0 C :   -0.213596
   1 C :   -0.478268
   2 C :   -0.582338
   3 C :    1.608954
   4 C :    0.557719
   5 C :   -0.968975
   6 S :    0.128170
   7 C :    0.306677
   8 C :    1.381772
   9 C :   -0.244615
  10 C :   -0.316675
  11 N :   -0.410311
  12 C :   -0.305102
  13 C :   -0.431119
  14 N :   -0.814432
  15 C :   -0.360679
  16 C :   -0.484101
  17 H :    0.206126
  18 H :    0.218611
  19 H :    0.070390
  20 H :    0.131294
  21 H :    0.082126
  22 H :    0.271658
  23 H :    0.278940
  24 H :    0.052562
  25 H :    0.103879
  26 H :    0.211333
Sum of atomic charges:    0.0000000

LOEWDIN ATOMIC CHARGES
----------------------
   0 C :   -0.145079
   1 C :   -0.129174
   2 C :   -0.060940
   3 C :   -0.346539
   4 C :   -0.545701
   5 C :   -0.334000
   6 S :    1.215855
   7 C :   -0.724563
   8 C :   -0.393669
   9 C :   -0.029353
  10 C :   -0.242946
  11 N :    0.155053
  12 C :   -0.244804
  13 C :   -0.053501
  14 N :    0.279488
  15 C :   -0.060586
  16 C :   -0.128935
  17 H :    0.168760
  18 H :    0.170817
  19 H :    0.195262
  20 H :    0.158539
  21 H :    0.195605
  22 H :    0.170614
  23 H :    0.170724
  24 H :    0.193589
  25 H :    0.194848
  26 H :    0.170636

  Mayer bond orders larger than 0.100000
B(  0-C ,  1-C ) :   1.2229 B(  0-C ,  3-C ) :  -0.1092 B(  0-C ,  4-C ) :   0.1274
B(  0-C , 16-C ) :   1.2129 B(  0-C , 17-H ) :   0.9430 B(  1-C ,  2-C ) :   1.2012
B(  1-C ,  3-C ) :  -0.1131 B(  1-C , 18-H ) :   0.9287 B(  2-C ,  3-C ) :   0.6676
B(  2-C ,  4-C ) :   0.1673 B(  2-C , 14-N ) :   0.1066 B(  2-C , 15-C ) :  -0.1398
B(  2-C , 19-H ) :   1.1448 B(  3-C ,  4-C ) :   0.2631 B(  3-C , 15-C ) :   0.6575
B(  3-C , 16-C ) :  -0.1213 B(  3-C , 19-H ) :  -0.1009 B(  3-C , 25-H ) :  -0.1247
B(  4-C ,  5-C ) :   0.8345 B(  4-C , 14-N ) :   0.7693 B(  4-C , 15-C ) :   0.1348
B(  4-C , 20-H ) :  -0.1493 B(  5-C ,  6-S ) :   1.0783 B(  5-C , 14-N ) :   0.1074
B(  5-C , 20-H ) :   1.1650 B(  6-S ,  7-C ) :   0.5558 B(  6-S ,  8-C ) :   0.1635
B(  6-S , 14-N ) :   0.1865 B(  7-C ,  9-C ) :   0.1076 B(  7-C , 13-C ) :   0.1314
B(  7-C , 14-N ) :   0.9463 B(  8-C ,  9-C ) :   0.9283 B(  8-C , 10-C ) :  -0.1004
B(  8-C , 12-C ) :  -0.1115 B(  8-C , 13-C ) :   0.8629 B(  8-C , 21-H ) :  -0.1117
B(  8-C , 24-H ) :  -0.1457 B(  9-C , 10-C ) :   0.9192 B(  9-C , 11-N ) :   0.1117
B(  9-C , 13-C ) :  -0.1981 B(  9-C , 21-H ) :   1.1712 B( 10-C , 11-N ) :   1.0289
B( 10-C , 12-C ) :   0.1104 B( 10-C , 13-C ) :   0.1246 B( 10-C , 22-H ) :   0.8843
B( 11-N , 12-C ) :   1.0252 B( 11-N , 13-C ) :   0.1092 B( 12-C , 13-C ) :   0.8999
B( 12-C , 23-H ) :   0.8911 B( 13-C , 14-N ) :   0.1239 B( 13-C , 24-H ) :   1.1980
B( 15-C , 16-C ) :   1.2096 B( 15-C , 25-H ) :   1.1273 B( 16-C , 26-H ) :   0.9436

-----------------------------------------------------------------------------
         ABSORPTION SPECTRUM VIA TRANSITION ELECTRIC DIPOLE MOMENTS
-----------------------------------------------------------------------------
State   Energy    Wavelength  fosc         T2        TX        TY        TZ
        (cm-1)      (nm)                 (au**2)    (au)      (au)      (au)
-----------------------------------------------------------------------------
   1   29905.7    334.4   0.267746745   2.94744   1.50063   0.20724  -0.80784
   2   35424.6    282.3   0.003142550   0.02920  -0.03047  -0.16053  -0.05007
   3   36392.9    274.8   0.029859649   0.27011  -0.38683   0.11345  -0.32803
   4   37071.0    269.8   0.383587252   3.40647  -1.65719   0.26961  -0.76649
   5   37953.1    263.5   0.277447372   2.40663   1.55029   0.02382  -0.05165
   6   38173.2    262.0   0.007655814   0.06602  -0.22648  -0.00722  -0.12116
   7   39422.5    253.7   0.014364397   0.11996  -0.30768   0.03518  -0.15508
   8   39627.1    252.4   0.382082151   3.17424  -1.70923  -0.10547   0.49159
   9   41468.4    241.1   0.092781681   0.73658   0.43078  -0.26386   0.69382
  10   42301.7    236.4   0.000982902   0.00765   0.00035   0.00439   0.08735

FINAL SINGLE POINT ENERGY     -1046.688581550276

DIPOLE MOMENT
-------------
                                X             Y             Z
Electronic contribution:      6.45839      -1.50639       5.07545
Nuclear contribution   :     -7.74743       1.18100      -3.84008
                        -----------------------------------------
Total Dipole Moment    :     -1.28904      -0.32539       1.23537
                        -----------------------------------------
Magnitude (a.u.)       :      1.81484
Magnitude (Debye)      :      4.61295

Rotational constants in cm-1:     0.036702     0.006941     0.005859
Rotational constants in MHz :  1100.286384   208.098212   175.635069

                             ****ORCA TERMINATED NORMALLY****
TOTAL RUN TIME: 0 days 4 hours 37 minutes 22 seconds 621 msec
