                         Program Version 5.0.2 -  RELEASE  -
|  1> ! b3lyp aug-cc-PVTZ RIJCOSX Opt
|  2> %maxcore 4000
|  3> %basis
|  4>  AuxJ "aug-cc-PVTZ/JK"
|  5>  AuxC "aug-cc-PVTZ/C"
|  6>  newGTO H "cc-PVTZ" end
|  7>  newAuxJGTO H "cc-PVTZ/JK" end
|  8>  newAuxCGTO H "cc-PVTZ/C" end
|  9> end
| 10> %cpcm
| 11>  SMD true
| 12>  SMDsolvent "toluene"
| 13> end
| 14> %pal nprocs 4 end
| 15> * xyz 0 1
| 16> C         -5.31150        2.61790        1.32570
| 17> O         -4.65010        1.57880        0.62110
| 18> C         -5.43770        0.76910       -0.11470
| 19> O         -6.63310        0.89650       -0.19020
| 20> C         -4.64760       -0.26950       -0.79620
| 21> C         -5.35990       -1.18080       -1.59740
| 22> N         -5.92160       -1.93440       -2.25580
| 23> C         -3.28260       -0.38980       -0.68930
| 24> C         -2.48560       -1.38640       -1.33270
| 25> C         -1.16260       -1.28720       -1.06210
| 26> C         -0.83540       -0.21040       -0.19360
| 27> C          0.41760        0.12990        0.25070
| 28> C          0.74620        1.20760        1.11690
| 29> C          2.07100        1.29910        1.38500
| 30> C          2.84920        0.29380        0.74020
| 31> C          4.21240        0.11950        0.81350
| 32> C          5.03340        0.96040        1.57580
| 33> N          5.69720        1.65530        2.20440
| 34> C          4.78920       -0.99170        0.05580
| 35> O          4.09660       -1.73700       -0.61280
| 36> O          6.10900       -1.09560        0.17300
| 37> C          6.71900       -2.15840       -0.54510
| 38> S          1.86150       -0.76880       -0.21460
| 39> S         -2.28500        0.67120        0.26550
| 40> H         -6.03230        2.19710        2.02970
| 41> H         -4.53570        3.16730        1.85220
| 42> H         -5.84090        3.26980        0.62790
| 43> H         -2.93840       -2.12910       -1.96550
| 44> H         -0.39970       -1.94040       -1.44770
| 45> H         -0.01040        1.86800        1.50330
| 46> H          2.53440        2.03820        2.01450
| 47> H          7.78330       -2.08840       -0.33750
| 48> H          6.32330       -3.11920       -0.20950
| 49> H          6.52710       -2.05250       -1.61490
| 50> *
| 51>
| 52>
| 53> $new_job
| 54> ! b3lyp aug-cc-PVTZ RIJCOSX SP
| 55> %maxcore 4000
| 56> %basis
| 57>  AuxJ "aug-cc-PVTZ/JK"
| 58>  AuxC "aug-cc-PVTZ/C"
| 59>  newGTO H "cc-PVTZ" end
| 60>  newAuxJGTO H "cc-PVTZ/JK" end
| 61>  newAuxCGTO H "cc-PVTZ/C" end
| 62> end
| 63> %cpcm
| 64>  SMD true
| 65>  SMDsolvent "toluene"
| 66> end
| 67> %pal nprocs 4 end
| 68> %tddft
| 69>  nroots 10
| 70>  maxdim 7
| 71> end
| 72> * xyzfile 0 1
| 73>
| 74>                          ****END OF INPUT****
 Total Charge           Charge          ....    0
 Multiplicity           Mult            ....    1
 Number of Electrons    NEL             ....  184
FINAL SINGLE POINT ENERGY     -1822.224766704567
FINAL SINGLE POINT ENERGY     -1822.230980024543
FINAL SINGLE POINT ENERGY     -1822.231640040926
FINAL SINGLE POINT ENERGY     -1822.231754256597
FINAL SINGLE POINT ENERGY     -1822.231801959589
FINAL SINGLE POINT ENERGY     -1822.231839075797
FINAL SINGLE POINT ENERGY     -1822.231852233571
FINAL SINGLE POINT ENERGY     -1822.231855993052
                    ***********************HURRAY********************
FINAL SINGLE POINT ENERGY     -1822.231854048914

CARTESIAN COORDINATES (ANGSTROEM)
---------------------------------
  C     -5.550638    2.707397    1.362415
  O     -4.823124    1.666978    0.675716
  C     -5.552984    0.818760   -0.066792
  O     -6.755989    0.878258   -0.177080
  C     -4.717331   -0.200489   -0.736260
  C     -5.438043   -1.121563   -1.545363
  N     -5.999081   -1.881137   -2.208148
  C     -3.349280   -0.332555   -0.652278
  C     -2.580754   -1.347333   -1.328279
  C     -1.250104   -1.287624   -1.099283
  C     -0.852247   -0.225750   -0.225874
  C      0.413343    0.084798    0.190840
  C      0.806535    1.148654    1.063408
  C      2.136293    1.203445    1.302625
  C      2.897176    0.181058    0.634953
  C      4.260335    0.011560    0.722192
  C      5.023392    0.893302    1.530115
  N      5.627750    1.619990    2.193038
  C      4.941152   -1.075027   -0.001815
  O      4.355732   -1.862866   -0.718613
  O      6.258836   -1.092975    0.219572
  C      7.006674   -2.129206   -0.449629
  S      1.840188   -0.842803   -0.319617
  S     -2.277801    0.695863    0.286204
  H     -6.263059    2.272738    2.060911
  H     -4.799284    3.282609    1.895293
  H     -6.074486    3.337285    0.645909
  H     -3.057899   -2.081811   -1.959545
  H     -0.538485   -1.976199   -1.531847
  H      0.094696    1.840959    1.489709
  H      2.613802    1.935896    1.936127
  H      8.039501   -1.976810   -0.151675
  H      6.660814   -3.111435   -0.132019
  H      6.904672   -2.034065   -1.529307

 Multiplicity           Mult            ....    1
 Number of Electrons    NEL             ....  184
 Basis Dimension        Dim             .... 1252

ORBITAL ENERGIES
----------------

  NO   OCC          E(Eh)            E(eV)
   0   2.0000     -88.945904     -2420.3411
   1   2.0000     -88.944067     -2420.2911
   2   2.0000     -19.192819      -522.2632
   3   2.0000     -19.190862      -522.2099
   4   2.0000     -19.133584      -520.6513
   5   2.0000     -19.128307      -520.5077
   6   2.0000     -14.325042      -389.8042
   7   2.0000     -14.323804      -389.7705
   8   2.0000     -10.324122      -280.9337
   9   2.0000     -10.322699      -280.8949
  10   2.0000     -10.269526      -279.4480
  11   2.0000     -10.267229      -279.3855
  12   2.0000     -10.256777      -279.1011
  13   2.0000     -10.254383      -279.0359
  14   2.0000     -10.241772      -278.6928
  15   2.0000     -10.239288      -278.6252
  16   2.0000     -10.232348      -278.4363
  17   2.0000     -10.229841      -278.3681
  18   2.0000     -10.226287      -278.2714
  19   2.0000     -10.224341      -278.2185
  20   2.0000     -10.224227      -278.2154
  21   2.0000     -10.224189      -278.2143
  22   2.0000     -10.220158      -278.1046
  23   2.0000     -10.219821      -278.0955
  24   2.0000      -7.996720      -217.6018
  25   2.0000      -7.994348      -217.5373
  26   2.0000      -5.960871      -162.2035
  27   2.0000      -5.958496      -162.1389
  28   2.0000      -5.957110      -162.1012
  29   2.0000      -5.954713      -162.0360
  30   2.0000      -5.953019      -161.9899
  31   2.0000      -5.950739      -161.9278
  32   2.0000      -1.124981       -30.6123
  33   2.0000      -1.124330       -30.5946
  34   2.0000      -1.037684       -28.2368
  35   2.0000      -1.035443       -28.1758
  36   2.0000      -0.934903       -25.4400
  37   2.0000      -0.925975       -25.1971
  38   2.0000      -0.919442       -25.0193
  39   2.0000      -0.907800       -24.7025
  40   2.0000      -0.849697       -23.1214
  41   2.0000      -0.828367       -22.5410
  42   2.0000      -0.788200       -21.4480
  43   2.0000      -0.780813       -21.2470
  44   2.0000      -0.763206       -20.7679
  45   2.0000      -0.745325       -20.2813
  46   2.0000      -0.731343       -19.9009
  47   2.0000      -0.695109       -18.9149
  48   2.0000      -0.644100       -17.5269
  49   2.0000      -0.618566       -16.8320
  50   2.0000      -0.605798       -16.4846
  51   2.0000      -0.601870       -16.3777
  52   2.0000      -0.587430       -15.9848
  53   2.0000      -0.571056       -15.5392
  54   2.0000      -0.558106       -15.1868
  55   2.0000      -0.544938       -14.8285
  56   2.0000      -0.539578       -14.6827
  57   2.0000      -0.513732       -13.9794
  58   2.0000      -0.500491       -13.6190
  59   2.0000      -0.499955       -13.6045
  60   2.0000      -0.489925       -13.3315
  61   2.0000      -0.485093       -13.2001
  62   2.0000      -0.473488       -12.8843
  63   2.0000      -0.458442       -12.4748
  64   2.0000      -0.447628       -12.1806
  65   2.0000      -0.446587       -12.1523
  66   2.0000      -0.439711       -11.9651
  67   2.0000      -0.434880       -11.8337
  68   2.0000      -0.431810       -11.7502
  69   2.0000      -0.421402       -11.4669
  70   2.0000      -0.420297       -11.4369
  71   2.0000      -0.407782       -11.0963
  72   2.0000      -0.402120       -10.9422
  73   2.0000      -0.389955       -10.6112
  74   2.0000      -0.382780       -10.4160
  75   2.0000      -0.381849       -10.3906
  76   2.0000      -0.380627       -10.3574
  77   2.0000      -0.377227       -10.2649
  78   2.0000      -0.373166       -10.1544
  79   2.0000      -0.372123       -10.1260
  80   2.0000      -0.358902        -9.7662
  81   2.0000      -0.353333        -9.6147
  82   2.0000      -0.349089        -9.4992
  83   2.0000      -0.332901        -9.0587
  84   2.0000      -0.325167        -8.8482
  85   2.0000      -0.323073        -8.7913
  86   2.0000      -0.300922        -8.1885
  87   2.0000      -0.300617        -8.1802
  88   2.0000      -0.298929        -8.1343
  89   2.0000      -0.291535        -7.9331
  90   2.0000      -0.280375        -7.6294
  91   2.0000      -0.225640        -6.1400
  92   0.0000      -0.143078        -3.8934
  93   0.0000      -0.080446        -2.1891
  94   0.0000      -0.029095        -0.7917
  95   0.0000      -0.015015        -0.4086
  96   0.0000      -0.007587        -0.2064

MULLIKEN ATOMIC CHARGES
-----------------------
   0 C :   -0.457963
   1 O :   -0.154559
   2 C :    0.030882
   3 O :   -0.806554
   4 C :    1.158300
   5 C :    0.488522
   6 N :   -0.781256
   7 C :    0.263751
   8 C :   -0.846869
   9 C :   -0.631592
  10 C :    0.522314
  11 C :    0.798694
  12 C :   -0.786111
  13 C :   -1.125566
  14 C :    0.047659
  15 C :    1.257149
  16 C :    0.689394
  17 N :   -0.792621
  18 C :    0.152273
  19 O :   -0.748927
  20 O :   -0.268599
  21 C :   -0.432731
  22 S :    0.403141
  23 S :    0.420686
  24 H :    0.187953
  25 H :    0.157177
  26 H :    0.187359
  27 H :    0.163119
  28 H :    0.104760
  29 H :    0.096106
  30 H :    0.171048
  31 H :    0.151897
  32 H :    0.189149
  33 H :    0.192015
Sum of atomic charges:   -0.0000000

LOEWDIN ATOMIC CHARGES
----------------------
   0 C :   -0.148486
   1 O :    0.345338
   2 C :   -0.971092
   3 O :    0.458870
   4 C :   -0.290818
   5 C :   -0.323851
   6 N :    0.270616
   7 C :   -0.573311
   8 C :   -0.050617
   9 C :   -0.075113
  10 C :   -0.642959
  11 C :   -0.640491
  12 C :   -0.078614
  13 C :   -0.047352
  14 C :   -0.580444
  15 C :   -0.301172
  16 C :   -0.317048
  17 N :    0.265283
  18 C :   -0.982131
  19 O :    0.434288
  20 O :    0.387394
  21 C :   -0.145828
  22 S :    1.298214
  23 S :    1.294692
  24 H :    0.109999
  25 H :    0.095617
  26 H :    0.110312
  27 H :    0.201390
  28 H :    0.192727
  29 H :    0.191577
  30 H :    0.199305
  31 H :    0.095034
  32 H :    0.109288
  33 H :    0.109383

  Mayer bond orders larger than 0.100000
B(  0-C ,  1-O ) :   0.7081 B(  0-C ,  2-C ) :   0.1760 B(  0-C , 24-H ) :   0.9619
B(  0-C , 25-H ) :   1.0092 B(  0-C , 26-H ) :   0.9620 B(  1-O ,  2-C ) :   0.9793
B(  1-O ,  7-C ) :   0.1677 B(  1-O , 23-S ) :  -0.2713 B(  2-C ,  3-O ) :   1.3690
B(  2-C ,  4-C ) :  -0.1215 B(  2-C ,  7-C ) :   0.1673 B(  3-O ,  4-C ) :  -0.2029
B(  3-O ,  7-C ) :   0.1218 B(  4-C ,  5-C ) :   0.5711 B(  4-C ,  6-N ) :   0.4162
B(  4-C ,  7-C ) :   0.8720 B(  5-C ,  6-N ) :   1.6187 B(  5-C ,  7-C ) :   0.2096
B(  5-C ,  8-C ) :   0.1744 B(  7-C ,  8-C ) :   0.5763 B(  7-C ,  9-C ) :   0.1886
B(  7-C , 10-C ) :  -0.1856 B(  7-C , 11-C ) :   0.1368 B(  7-C , 23-S ) :   0.8953
B(  8-C ,  9-C ) :   0.8066 B(  8-C , 10-C ) :   0.1095 B(  8-C , 27-H ) :   1.0723
B(  9-C , 10-C ) :   0.3653 B(  9-C , 12-C ) :   0.1990 B(  9-C , 14-C ) :  -0.1088
B(  9-C , 28-H ) :   1.1527 B( 10-C , 11-C ) :   0.8592 B( 10-C , 12-C ) :   0.1362
B( 10-C , 14-C ) :   0.1707 B( 10-C , 22-S ) :   0.1682 B( 10-C , 23-S ) :   0.4151
B( 10-C , 28-H ) :  -0.1396 B( 11-C , 12-C ) :   0.2600 B( 11-C , 14-C ) :  -0.1733
B( 11-C , 22-S ) :   0.4276 B( 11-C , 23-S ) :   0.2625 B( 11-C , 29-H ) :  -0.1583
B( 12-C , 13-C ) :   1.1546 B( 12-C , 14-C ) :   0.1967 B( 12-C , 29-H ) :   1.1618
B( 13-C , 14-C ) :   0.5349 B( 13-C , 16-C ) :   0.1618 B( 13-C , 17-N ) :   0.1286
B( 13-C , 30-H ) :   1.0633 B( 14-C , 15-C ) :   0.5749 B( 14-C , 16-C ) :  -0.1946
B( 14-C , 18-C ) :   0.5304 B( 14-C , 19-O ) :   0.2468 B( 14-C , 20-O ) :   0.1927
B( 14-C , 22-S ) :   0.8731 B( 15-C , 16-C ) :   1.0486 B( 15-C , 17-N ) :   0.3277
B( 15-C , 18-C ) :  -0.2921 B( 15-C , 20-O ) :  -0.1820 B( 15-C , 22-S ) :   0.2536
B( 16-C , 17-N ) :   1.7060 B( 16-C , 18-C ) :  -0.1774 B( 18-C , 19-O ) :   1.2370
B( 18-C , 20-O ) :   0.8762 B( 18-C , 21-C ) :   0.1494 B( 18-C , 22-S ) :  -0.1859
B( 19-O , 22-S ) :  -0.1356 B( 20-O , 21-C ) :   0.7630 B( 21-C , 31-H ) :   1.0187
B( 21-C , 32-H ) :   0.9549 B( 21-C , 33-H ) :   0.9528

-----------------------------------------------------------------------------
         ABSORPTION SPECTRUM VIA TRANSITION ELECTRIC DIPOLE MOMENTS
-----------------------------------------------------------------------------
State   Energy    Wavelength  fosc         T2        TX        TY        TZ
        (cm-1)      (nm)                 (au**2)    (au)      (au)      (au)
-----------------------------------------------------------------------------
   1   19584.4    510.6   2.207425206  37.10661  -5.97939  -0.32596  -1.11683
   2   25847.3    386.9   0.004332949   0.05519  -0.22886  -0.02397  -0.04727
   3   27394.1    365.0   0.447267289   5.37510  -2.27845  -0.11099  -0.41405
   4   28361.7    352.6   0.000778631   0.00904   0.09350   0.01519  -0.00805
   5   28400.2    352.1   0.004952906   0.05741  -0.23456   0.00618  -0.04855
   6   29021.7    344.6   0.000044008   0.00050   0.00519  -0.01154   0.01841
   7   33219.4    301.0   0.001649010   0.01634  -0.12508  -0.02574  -0.00596
   8   35819.9    279.2   0.075450555   0.69345  -0.81836  -0.03748  -0.14944
   9   36424.0    274.5   0.004721700   0.04268   0.01733  -0.17319  -0.11127
  10   37230.2    268.6   0.013164580   0.11641   0.33796  -0.04507   0.01283

FINAL SINGLE POINT ENERGY     -1822.142620979023

DIPOLE MOMENT
-------------
                                X             Y             Z
Electronic contribution:     -3.34871      -1.36943      -1.67995
Nuclear contribution   :      4.73801       1.95717       2.29720
                        -----------------------------------------
Total Dipole Moment    :      1.38931       0.58774       0.61725
                        -----------------------------------------
Magnitude (a.u.)       :      1.62991
Magnitude (Debye)      :      4.14291

Rotational constants in cm-1:     0.019952     0.002481     0.002209
Rotational constants in MHz :   598.150042    74.389645    66.219759

                             ****ORCA TERMINATED NORMALLY****
TOTAL RUN TIME: 0 days 4 hours 54 minutes 25 seconds 847 msec
