                         Program Version 5.0.2 -  RELEASE  -
|  1> ! m062x defgrid3 aug-cc-PVTZ RIJCOSX Opt
|  2> %maxcore 4000
|  3> %basis
|  4>  AuxJ "aug-cc-PVTZ/JK"
|  5>  AuxC "aug-cc-PVTZ/C"
|  6>  newGTO H "cc-PVTZ" end
|  7>  newAuxJGTO H "cc-PVTZ/JK" end
|  8>  newAuxCGTO H "cc-PVTZ/C" end
|  9> end
| 10> %cpcm
| 11>  SMD true
| 12>  SMDsolvent "toluene"
| 13> end
| 14> %pal nprocs 4 end
| 15> * xyz 0 1
| 16> C         -5.31150        2.61790        1.32570
| 17> O         -4.65010        1.57880        0.62110
| 18> C         -5.43770        0.76910       -0.11470
| 19> O         -6.63310        0.89650       -0.19020
| 20> C         -4.64760       -0.26950       -0.79620
| 21> C         -5.35990       -1.18080       -1.59740
| 22> N         -5.92160       -1.93440       -2.25580
| 23> C         -3.28260       -0.38980       -0.68930
| 24> C         -2.48560       -1.38640       -1.33270
| 25> C         -1.16260       -1.28720       -1.06210
| 26> C         -0.83540       -0.21040       -0.19360
| 27> C          0.41760        0.12990        0.25070
| 28> C          0.74620        1.20760        1.11690
| 29> C          2.07100        1.29910        1.38500
| 30> C          2.84920        0.29380        0.74020
| 31> C          4.21240        0.11950        0.81350
| 32> C          5.03340        0.96040        1.57580
| 33> N          5.69720        1.65530        2.20440
| 34> C          4.78920       -0.99170        0.05580
| 35> O          4.09660       -1.73700       -0.61280
| 36> O          6.10900       -1.09560        0.17300
| 37> C          6.71900       -2.15840       -0.54510
| 38> S          1.86150       -0.76880       -0.21460
| 39> S         -2.28500        0.67120        0.26550
| 40> H         -6.03230        2.19710        2.02970
| 41> H         -4.53570        3.16730        1.85220
| 42> H         -5.84090        3.26980        0.62790
| 43> H         -2.93840       -2.12910       -1.96550
| 44> H         -0.39970       -1.94040       -1.44770
| 45> H         -0.01040        1.86800        1.50330
| 46> H          2.53440        2.03820        2.01450
| 47> H          7.78330       -2.08840       -0.33750
| 48> H          6.32330       -3.11920       -0.20950
| 49> H          6.52710       -2.05250       -1.61490
| 50> *
| 51>
| 52>
| 53> $new_job
| 54> ! m062x defgrid3 aug-cc-PVTZ RIJCOSX SP
| 55> %maxcore 4000
| 56> %basis
| 57>  AuxJ "aug-cc-PVTZ/JK"
| 58>  AuxC "aug-cc-PVTZ/C"
| 59>  newGTO H "cc-PVTZ" end
| 60>  newAuxJGTO H "cc-PVTZ/JK" end
| 61>  newAuxCGTO H "cc-PVTZ/C" end
| 62> end
| 63> %cpcm
| 64>  SMD true
| 65>  SMDsolvent "toluene"
| 66> end
| 67> %pal nprocs 4 end
| 68> %tddft
| 69>  nroots 10
| 70>  maxdim 7
| 71> end
| 72> * xyzfile 0 1
| 73>
| 74>                          ****END OF INPUT****
 Total Charge           Charge          ....    0
 Multiplicity           Mult            ....    1
 Number of Electrons    NEL             ....  184
FINAL SINGLE POINT ENERGY     -1822.467944279636
FINAL SINGLE POINT ENERGY     -1822.474367871607
FINAL SINGLE POINT ENERGY     -1822.475496726609
FINAL SINGLE POINT ENERGY     -1822.475706480204
FINAL SINGLE POINT ENERGY     -1822.475686920702
FINAL SINGLE POINT ENERGY     -1822.475739056870
FINAL SINGLE POINT ENERGY     -1822.475741276318
FINAL SINGLE POINT ENERGY     -1822.475742551566
                    ***********************HURRAY********************
FINAL SINGLE POINT ENERGY     -1822.475742967633

CARTESIAN COORDINATES (ANGSTROEM)
---------------------------------
  C     -5.534811    2.691462    1.358250
  O     -4.794681    1.667361    0.681732
  C     -5.515174    0.837705   -0.073393
  O     -6.708569    0.908655   -0.204169
  C     -4.678262   -0.185518   -0.734484
  C     -5.393964   -1.111766   -1.550358
  N     -5.941174   -1.872407   -2.214333
  C     -3.324521   -0.318930   -0.637687
  C     -2.563528   -1.351008   -1.314381
  C     -1.242807   -1.299205   -1.084043
  C     -0.845090   -0.226555   -0.210310
  C      0.410028    0.073760    0.198608
  C      0.805128    1.149588    1.069147
  C      2.125946    1.198771    1.303786
  C      2.877798    0.159575    0.633303
  C      4.229012   -0.003411    0.720089
  C      4.988526    0.894778    1.522047
  N      5.577755    1.632705    2.176693
  C      4.919818   -1.088206    0.003490
  O      4.342873   -1.890958   -0.691524
  O      6.231388   -1.078536    0.207289
  C      6.969786   -2.106531   -0.463102
  S      1.820803   -0.862644   -0.301129
  S     -2.256859    0.701497    0.293223
  H     -6.261519    2.243363    2.032529
  H     -4.801389    3.265544    1.915088
  H     -6.045907    3.323015    0.634803
  H     -3.055269   -2.080062   -1.941813
  H     -0.526751   -1.989523   -1.508025
  H      0.089557    1.843923    1.487295
  H      2.619996    1.928216    1.929053
  H      8.007853   -1.947390   -0.191318
  H      6.634464   -3.086941   -0.130657
  H      6.839846   -2.020425   -1.540097

 Multiplicity           Mult            ....    1
 Number of Electrons    NEL             ....  184
 Basis Dimension        Dim             .... 1252

ORBITAL ENERGIES
----------------

  NO   OCC          E(Eh)            E(eV)
   0   2.0000     -89.990934     -2448.7778
   1   2.0000     -89.989429     -2448.7368
   2   2.0000     -19.692345      -535.8559
   3   2.0000     -19.689683      -535.7835
   4   2.0000     -19.634454      -534.2806
   5   2.0000     -19.630573      -534.1751
   6   2.0000     -14.762764      -401.7152
   7   2.0000     -14.761499      -401.6808
   8   2.0000     -10.697626      -291.0972
   9   2.0000     -10.696601      -291.0693
  10   2.0000     -10.641294      -289.5643
  11   2.0000     -10.639239      -289.5084
  12   2.0000     -10.624185      -289.0988
  13   2.0000     -10.621783      -289.0334
  14   2.0000     -10.608507      -288.6721
  15   2.0000     -10.605720      -288.5963
  16   2.0000     -10.598767      -288.4071
  17   2.0000     -10.595824      -288.3270
  18   2.0000     -10.594411      -288.2886
  19   2.0000     -10.594131      -288.2810
  20   2.0000     -10.593799      -288.2719
  21   2.0000     -10.592377      -288.2332
  22   2.0000     -10.588836      -288.1369
  23   2.0000     -10.588617      -288.1309
  24   2.0000      -8.325997      -226.5619
  25   2.0000      -8.324082      -226.5098
  26   2.0000      -6.245530      -169.9495
  27   2.0000      -6.243560      -169.8959
  28   2.0000      -6.243317      -169.8893
  29   2.0000      -6.241326      -169.8351
  30   2.0000      -6.240675      -169.8174
  31   2.0000      -6.238771      -169.7656
  32   2.0000      -1.260320       -34.2951
  33   2.0000      -1.260020       -34.2869
  34   2.0000      -1.164820       -31.6964
  35   2.0000      -1.163668       -31.6650
  36   2.0000      -1.045514       -28.4499
  37   2.0000      -1.038357       -28.2551
  38   2.0000      -1.030760       -28.0484
  39   2.0000      -1.015266       -27.6268
  40   2.0000      -0.953811       -25.9545
  41   2.0000      -0.929863       -25.3029
  42   2.0000      -0.887357       -24.1462
  43   2.0000      -0.876867       -23.8608
  44   2.0000      -0.858094       -23.3499
  45   2.0000      -0.842632       -22.9292
  46   2.0000      -0.824601       -22.4385
  47   2.0000      -0.781308       -21.2605
  48   2.0000      -0.728509       -19.8237
  49   2.0000      -0.699917       -19.0457
  50   2.0000      -0.689114       -18.7518
  51   2.0000      -0.682169       -18.5627
  52   2.0000      -0.670783       -18.2529
  53   2.0000      -0.654334       -17.8053
  54   2.0000      -0.636421       -17.3179
  55   2.0000      -0.628312       -17.0973
  56   2.0000      -0.621099       -16.9010
  57   2.0000      -0.590207       -16.0603
  58   2.0000      -0.590051       -16.0561
  59   2.0000      -0.589109       -16.0305
  60   2.0000      -0.575159       -15.6509
  61   2.0000      -0.565791       -15.3960
  62   2.0000      -0.543872       -14.7995
  63   2.0000      -0.528448       -14.3798
  64   2.0000      -0.524351       -14.2683
  65   2.0000      -0.513335       -13.9686
  66   2.0000      -0.509136       -13.8543
  67   2.0000      -0.509036       -13.8516
  68   2.0000      -0.497816       -13.5463
  69   2.0000      -0.492674       -13.4063
  70   2.0000      -0.485600       -13.2138
  71   2.0000      -0.473598       -12.8872
  72   2.0000      -0.471317       -12.8252
  73   2.0000      -0.462738       -12.5917
  74   2.0000      -0.456634       -12.4257
  75   2.0000      -0.454125       -12.3574
  76   2.0000      -0.453475       -12.3397
  77   2.0000      -0.445768       -12.1300
  78   2.0000      -0.444075       -12.0839
  79   2.0000      -0.442300       -12.0356
  80   2.0000      -0.426851       -11.6152
  81   2.0000      -0.419321       -11.4103
  82   2.0000      -0.414565       -11.2809
  83   2.0000      -0.399537       -10.8719
  84   2.0000      -0.396220       -10.7817
  85   2.0000      -0.390445       -10.6246
  86   2.0000      -0.381287       -10.3753
  87   2.0000      -0.373474       -10.1628
  88   2.0000      -0.360282        -9.8038
  89   2.0000      -0.350240        -9.5305
  90   2.0000      -0.333697        -9.0804
  91   2.0000      -0.266995        -7.2653
  92   0.0000      -0.117507        -3.1975
  93   0.0000      -0.050967        -1.3869
  94   0.0000      -0.006684        -0.1819
  95   0.0000      -0.000635        -0.0173
  96   0.0000       0.003754         0.1022

MULLIKEN ATOMIC CHARGES
-----------------------
   0 C :   -0.687543
   1 O :    0.069556
   2 C :   -0.186379
   3 O :   -0.925124
   4 C :    1.215233
   5 C :    0.847667
   6 N :   -1.011168
   7 C :    0.750359
   8 C :   -1.136952
   9 C :   -0.717258
  10 C :    0.836150
  11 C :    1.144634
  12 C :   -0.877482
  13 C :   -1.387319
  14 C :    0.565168
  15 C :    1.405827
  16 C :    0.999826
  17 N :   -0.984506
  18 C :   -0.031500
  19 O :   -0.829365
  20 O :   -0.133175
  21 C :   -0.664769
  22 S :    0.048761
  23 S :    0.191633
  24 H :    0.222796
  25 H :    0.174071
  26 H :    0.223410
  27 H :    0.090516
  28 H :    0.038387
  29 H :    0.026659
  30 H :    0.102268
  31 H :    0.163300
  32 H :    0.227990
  33 H :    0.228329
Sum of atomic charges:   -0.0000000

LOEWDIN ATOMIC CHARGES
----------------------
   0 C :   -0.151838
   1 O :    0.346905
   2 C :   -0.990404
   3 O :    0.467916
   4 C :   -0.288423
   5 C :   -0.325259
   6 N :    0.272976
   7 C :   -0.586307
   8 C :   -0.045919
   9 C :   -0.071365
  10 C :   -0.659331
  11 C :   -0.657331
  12 C :   -0.074236
  13 C :   -0.042500
  14 C :   -0.593623
  15 C :   -0.298139
  16 C :   -0.319444
  17 N :    0.268600
  18 C :   -1.003127
  19 O :    0.442777
  20 O :    0.388405
  21 C :   -0.150160
  22 S :    1.314625
  23 S :    1.308953
  24 H :    0.113958
  25 H :    0.096902
  26 H :    0.113971
  27 H :    0.205089
  28 H :    0.196104
  29 H :    0.194959
  30 H :    0.203039
  31 H :    0.096075
  32 H :    0.112989
  33 H :    0.113164

  Mayer bond orders larger than 0.100000
B(  0-C ,  1-O ) :   0.5843 B(  0-C ,  2-C ) :   0.2928 B(  0-C ,  4-C ) :  -0.1174
B(  0-C , 24-H ) :   0.9610 B(  0-C , 25-H ) :   0.9986 B(  0-C , 26-H ) :   0.9597
B(  1-O ,  2-C ) :   1.1632 B(  1-O ,  4-C ) :  -0.1587 B(  1-O ,  7-C ) :   0.1489
B(  1-O , 23-S ) :  -0.1953 B(  2-C ,  3-O ) :   1.3078 B(  2-C ,  4-C ) :  -0.1963
B(  2-C ,  5-C ) :   0.1021 B(  2-C ,  7-C ) :   0.2639 B(  3-O ,  4-C ) :  -0.3920
B(  3-O ,  7-C ) :   0.1688 B(  4-C ,  5-C ) :   0.5289 B(  4-C ,  6-N ) :   0.7155
B(  4-C ,  7-C ) :   0.6419 B(  4-C ,  8-C ) :  -0.1943 B(  4-C ,  9-C ) :   0.1849
B(  4-C , 10-C ) :   0.1069 B(  5-C ,  6-N ) :   0.8485 B(  5-C ,  7-C ) :   0.3416
B(  5-C ,  9-C ) :  -0.1177 B(  6-N ,  7-C ) :  -0.2534 B(  6-N ,  8-C ) :   0.2393
B(  7-C , 10-C ) :  -0.2372 B(  7-C , 11-C ) :   0.1602 B(  7-C , 23-S ) :   1.1058
B(  7-C , 27-H ) :  -0.2458 B(  8-C ,  9-C ) :   1.0921 B(  8-C , 27-H ) :   1.3674
B(  9-C , 12-C ) :   0.1089 B(  9-C , 22-S ) :   0.1416 B(  9-C , 27-H ) :  -0.2014
B(  9-C , 28-H ) :   1.3381 B( 10-C , 11-C ) :   0.7151 B( 10-C , 14-C ) :   0.1340
B( 10-C , 22-S ) :  -0.1525 B( 10-C , 23-S ) :   0.6587 B( 10-C , 28-H ) :  -0.3306
B( 11-C , 12-C ) :  -0.2938 B( 11-C , 13-C ) :  -0.1088 B( 11-C , 14-C ) :  -0.1398
B( 11-C , 22-S ) :   0.7268 B( 11-C , 29-H ) :  -0.3749 B( 12-C , 13-C ) :   1.6154
B( 12-C , 15-C ) :   0.2332 B( 12-C , 16-C ) :  -0.1497 B( 12-C , 29-H ) :   1.3558
B( 12-C , 30-H ) :  -0.1310 B( 13-C , 14-C ) :  -0.3111 B( 13-C , 17-N ) :   0.2252
B( 13-C , 30-H ) :   1.3548 B( 14-C , 15-C ) :   0.3329 B( 14-C , 17-N ) :  -0.2158
B( 14-C , 18-C ) :   0.6632 B( 14-C , 19-O ) :   0.2534 B( 14-C , 20-O ) :   0.1504
B( 14-C , 22-S ) :   1.0471 B( 14-C , 30-H ) :  -0.3188 B( 15-C , 16-C ) :   0.9996
B( 15-C , 17-N ) :   0.3772 B( 15-C , 18-C ) :  -0.3792 B( 15-C , 19-O ) :  -0.2627
B( 15-C , 20-O ) :  -0.2201 B( 15-C , 21-C ) :  -0.1434 B( 16-C , 17-N ) :   1.2126
B( 16-C , 18-C ) :  -0.1781 B( 18-C , 19-O ) :   1.2794 B( 18-C , 20-O ) :   0.9549
B( 18-C , 21-C ) :   0.2321 B( 19-O , 22-S ) :  -0.1158 B( 20-O , 21-C ) :   0.6960
B( 21-C , 31-H ) :   1.0163 B( 21-C , 32-H ) :   0.9451 B( 21-C , 33-H ) :   0.9451

-----------------------------------------------------------------------------
         ABSORPTION SPECTRUM VIA TRANSITION ELECTRIC DIPOLE MOMENTS
-----------------------------------------------------------------------------
State   Energy    Wavelength  fosc         T2        TX        TY        TZ
        (cm-1)      (nm)                 (au**2)    (au)      (au)      (au)
-----------------------------------------------------------------------------
   1   21292.9    469.6   2.088581981  32.29184   5.57142   0.32600   1.06998
   2   32116.7    311.4   0.011874631   0.12172   0.34323   0.01642   0.06035
   3   32838.5    304.5   0.280344649   2.81051  -1.65640  -0.01788  -0.25791
   4   33178.4    301.4   0.004674362   0.04638   0.21280  -0.02599   0.02052
   5   37182.0    268.9   0.000299121   0.00265  -0.02611  -0.03266   0.03000
   6   37331.1    267.9   0.001642762   0.01449   0.10157   0.04720   0.04407
   7   38691.8    258.5   0.000147486   0.00125  -0.00695  -0.02338   0.02569
   8   42824.6    233.5   0.007001565   0.05382  -0.03655  -0.13883   0.18225
   9   43036.3    232.4   0.117112230   0.89587  -0.93876   0.05842  -0.10573
  10   44159.3    226.5   0.006636077   0.04947  -0.03834  -0.13143   0.17530

FINAL SINGLE POINT ENERGY     -1822.378725505059

DIPOLE MOMENT
-------------
                                X             Y             Z
Electronic contribution:     -3.31182      -1.36824      -1.60380
Nuclear contribution   :      4.63621       1.95092       2.23966
                        -----------------------------------------
Total Dipole Moment    :      1.32439       0.58268       0.63586
                        -----------------------------------------
Magnitude (a.u.)       :      1.58045
Magnitude (Debye)      :      4.01720

Rotational constants in cm-1:     0.020019     0.002512     0.002234
Rotational constants in MHz :   600.168032    75.319517    66.978295

                             ****ORCA TERMINATED NORMALLY****
TOTAL RUN TIME: 0 days 12 hours 11 minutes 18 seconds 720 msec
