                         Program Version 5.0.2 -  RELEASE  -
|  1> ! pbe0 d3bj aug-cc-PVTZ RIJCOSX Opt
|  2> %maxcore 4000
|  3> %basis
|  4>  AuxJ "aug-cc-PVTZ/JK"
|  5>  AuxC "aug-cc-PVTZ/C"
|  6>  newGTO H "cc-PVTZ" end
|  7>  newAuxJGTO H "cc-PVTZ/JK" end
|  8>  newAuxCGTO H "cc-PVTZ/C" end
|  9> end
| 10> %cpcm
| 11>  SMD true
| 12>  SMDsolvent "toluene"
| 13> end
| 14> %pal nprocs 4 end
| 15> * xyz 0 1
| 16> C         -5.31150        2.61790        1.32570
| 17> O         -4.65010        1.57880        0.62110
| 18> C         -5.43770        0.76910       -0.11470
| 19> O         -6.63310        0.89650       -0.19020
| 20> C         -4.64760       -0.26950       -0.79620
| 21> C         -5.35990       -1.18080       -1.59740
| 22> N         -5.92160       -1.93440       -2.25580
| 23> C         -3.28260       -0.38980       -0.68930
| 24> C         -2.48560       -1.38640       -1.33270
| 25> C         -1.16260       -1.28720       -1.06210
| 26> C         -0.83540       -0.21040       -0.19360
| 27> C          0.41760        0.12990        0.25070
| 28> C          0.74620        1.20760        1.11690
| 29> C          2.07100        1.29910        1.38500
| 30> C          2.84920        0.29380        0.74020
| 31> C          4.21240        0.11950        0.81350
| 32> C          5.03340        0.96040        1.57580
| 33> N          5.69720        1.65530        2.20440
| 34> C          4.78920       -0.99170        0.05580
| 35> O          4.09660       -1.73700       -0.61280
| 36> O          6.10900       -1.09560        0.17300
| 37> C          6.71900       -2.15840       -0.54510
| 38> S          1.86150       -0.76880       -0.21460
| 39> S         -2.28500        0.67120        0.26550
| 40> H         -6.03230        2.19710        2.02970
| 41> H         -4.53570        3.16730        1.85220
| 42> H         -5.84090        3.26980        0.62790
| 43> H         -2.93840       -2.12910       -1.96550
| 44> H         -0.39970       -1.94040       -1.44770
| 45> H         -0.01040        1.86800        1.50330
| 46> H          2.53440        2.03820        2.01450
| 47> H          7.78330       -2.08840       -0.33750
| 48> H          6.32330       -3.11920       -0.20950
| 49> H          6.52710       -2.05250       -1.61490
| 50> *
| 51>
| 52>
| 53> $new_job
| 54> ! b2plyp aug-cc-PVTZ RIJCOSX SP
| 55> %maxcore 4000
| 56> %basis
| 57>  AuxJ "aug-cc-PVTZ/JK"
| 58>  AuxC "aug-cc-PVTZ/C"
| 59>  newGTO H "cc-PVTZ" end
| 60>  newAuxJGTO H "cc-PVTZ/JK" end
| 61>  newAuxCGTO H "cc-PVTZ/C" end
| 62> end
| 63> %cpcm
| 64>  SMD true
| 65>  SMDsolvent "toluene"
| 66> end
| 67> %pal nprocs 4 end
| 68> %tddft
| 69>  nroots 10
| 70>  maxdim 7
| 71> end
| 72> * xyzfile 0 1
| 73>
| 74>                          ****END OF INPUT****
 Total Charge           Charge          ....    0
 Multiplicity           Mult            ....    1
 Number of Electrons    NEL             ....  184
Dispersion correction           -0.043472554
FINAL SINGLE POINT ENERGY     -1821.477231379337
Dispersion correction            ... done
Dispersion correction           -0.043160771
FINAL SINGLE POINT ENERGY     -1821.481140256299
Dispersion correction            ... done
Dispersion correction           -0.043212632
FINAL SINGLE POINT ENERGY     -1821.481523584489
Dispersion correction            ... done
FINAL SINGLE POINT ENERGY     -1821.481513022647
FINAL SINGLE POINT ENERGY     -1821.481619219563
FINAL SINGLE POINT ENERGY     -1821.481608843668
FINAL SINGLE POINT ENERGY     -1821.481632804307
Dispersion correction            ... done
Dispersion correction           -0.043215242
FINAL SINGLE POINT ENERGY     -1821.481632366693
Dispersion correction            ... done
                    ***********************HURRAY********************
Dispersion correction           -0.043213677
FINAL SINGLE POINT ENERGY     -1821.481635600798

CARTESIAN COORDINATES (ANGSTROEM)
---------------------------------
  C     -5.478634    2.682439    1.343935
  O     -4.764116    1.646775    0.666753
  C     -5.504514    0.810506   -0.063098
  O     -6.703520    0.878692   -0.165220
  C     -4.680519   -0.207847   -0.732173
  C     -5.395541   -1.127788   -1.538748
  N     -5.951512   -1.889590   -2.201812
  C     -3.316998   -0.338854   -0.648496
  C     -2.555531   -1.352473   -1.327138
  C     -1.228013   -1.289436   -1.097207
  C     -0.845583   -0.226555   -0.222966
  C      0.413591    0.089650    0.197432
  C      0.788831    1.153058    1.073519
  C      2.115108    1.212433    1.315038
  C      2.870561    0.194086    0.642374
  C      4.229314    0.026926    0.727560
  C      4.989168    0.904021    1.535048
  N      5.592305    1.628958    2.199496
  C      4.897703   -1.055097    0.000302
  O      4.302605   -1.830999   -0.715477
  O      6.206538   -1.084740    0.217064
  C      6.921810   -2.120450   -0.459288
  S      1.829674   -0.823845   -0.306932
  S     -2.259445    0.681333    0.284622
  H     -6.193436    2.254929    2.046562
  H     -4.726393    3.260795    1.874467
  H     -6.004471    3.311978    0.626432
  H     -3.039057   -2.084767   -1.959032
  H     -0.506895   -1.972456   -1.526640
  H      0.066316    1.838352    1.497041
  H      2.597531    1.942259    1.950615
  H      7.962598   -1.992763   -0.173839
  H      6.560885   -3.100105   -0.145732
  H      6.809937   -2.019526   -1.538863

 Multiplicity           Mult            ....    1
 Number of Electrons    NEL             ....  184
 Basis Dimension        Dim             .... 1252

ORBITAL ENERGIES
----------------

  NO   OCC          E(Eh)            E(eV)
   0   2.0000     -90.232659     -2455.3555
   1   2.0000     -90.230777     -2455.3043
   2   2.0000     -19.792639      -538.5851
   3   2.0000     -19.790416      -538.5246
   4   2.0000     -19.731505      -536.9215
   5   2.0000     -19.727756      -536.8195
   6   2.0000     -14.850987      -404.1159
   7   2.0000     -14.849249      -404.0686
   8   2.0000     -10.777382      -293.2675
   9   2.0000     -10.776327      -293.2388
  10   2.0000     -10.721754      -291.7538
  11   2.0000     -10.719316      -291.6874
  12   2.0000     -10.702844      -291.2392
  13   2.0000     -10.700040      -291.1629
  14   2.0000     -10.682847      -290.6951
  15   2.0000     -10.679687      -290.6091
  16   2.0000     -10.676078      -290.5109
  17   2.0000     -10.673278      -290.4346
  18   2.0000     -10.673125      -290.4305
  19   2.0000     -10.673017      -290.4276
  20   2.0000     -10.673016      -290.4275
  21   2.0000     -10.670461      -290.3580
  22   2.0000     -10.666377      -290.2469
  23   2.0000     -10.665876      -290.2332
  24   2.0000      -8.421548      -229.1620
  25   2.0000      -8.419129      -229.0961
  26   2.0000      -6.268404      -170.5719
  27   2.0000      -6.265959      -170.5054
  28   2.0000      -6.265727      -170.4991
  29   2.0000      -6.263238      -170.4314
  30   2.0000      -6.262796      -170.4194
  31   2.0000      -6.260395      -170.3540
  32   2.0000      -1.279730       -34.8232
  33   2.0000      -1.279696       -34.8223
  34   2.0000      -1.183421       -32.2025
  35   2.0000      -1.181945       -32.1624
  36   2.0000      -1.068485       -29.0750
  37   2.0000      -1.058518       -28.8037
  38   2.0000      -1.051001       -28.5992
  39   2.0000      -1.037812       -28.2403
  40   2.0000      -0.972756       -26.4700
  41   2.0000      -0.948444       -25.8085
  42   2.0000      -0.903848       -24.5950
  43   2.0000      -0.892925       -24.2977
  44   2.0000      -0.872464       -23.7409
  45   2.0000      -0.852453       -23.1964
  46   2.0000      -0.835662       -22.7395
  47   2.0000      -0.797530       -21.7019
  48   2.0000      -0.738706       -20.1012
  49   2.0000      -0.709173       -19.2976
  50   2.0000      -0.696765       -18.9599
  51   2.0000      -0.690618       -18.7927
  52   2.0000      -0.677773       -18.4431
  53   2.0000      -0.659214       -17.9381
  54   2.0000      -0.641895       -17.4668
  55   2.0000      -0.630526       -17.1575
  56   2.0000      -0.623843       -16.9756
  57   2.0000      -0.593905       -16.1610
  58   2.0000      -0.583967       -15.8905
  59   2.0000      -0.582627       -15.8541
  60   2.0000      -0.574528       -15.6337
  61   2.0000      -0.568738       -15.4761
  62   2.0000      -0.548676       -14.9302
  63   2.0000      -0.533508       -14.5175
  64   2.0000      -0.516549       -14.0560
  65   2.0000      -0.516289       -14.0489
  66   2.0000      -0.511147       -13.9090
  67   2.0000      -0.503461       -13.6999
  68   2.0000      -0.501685       -13.6515
  69   2.0000      -0.489921       -13.3314
  70   2.0000      -0.484844       -13.1933
  71   2.0000      -0.475083       -12.9277
  72   2.0000      -0.464159       -12.6304
  73   2.0000      -0.463381       -12.6092
  74   2.0000      -0.458333       -12.4719
  75   2.0000      -0.453937       -12.3523
  76   2.0000      -0.444084       -12.0842
  77   2.0000      -0.442640       -12.0449
  78   2.0000      -0.442110       -12.0304
  79   2.0000      -0.430537       -11.7155
  80   2.0000      -0.419205       -11.4072
  81   2.0000      -0.410174       -11.1614
  82   2.0000      -0.405216       -11.0265
  83   2.0000      -0.391809       -10.6617
  84   2.0000      -0.389943       -10.6109
  85   2.0000      -0.376630       -10.2486
  86   2.0000      -0.374937       -10.2025
  87   2.0000      -0.366428        -9.9710
  88   2.0000      -0.347244        -9.4490
  89   2.0000      -0.337550        -9.1852
  90   2.0000      -0.320588        -8.7236
  91   2.0000      -0.252530        -6.8717
  92   0.0000      -0.102410        -2.7867
  93   0.0000      -0.031523        -0.8578
  94   0.0000       0.011192         0.3046
  95   0.0000       0.016781         0.4566
  96   0.0000       0.022822         0.6210

MULLIKEN ATOMIC CHARGES
-----------------------
   0 C :   -0.549760
   1 O :   -0.156235
   2 C :   -0.052538
   3 O :   -0.854958
   4 C :    1.375084
   5 C :    0.428029
   6 N :   -0.810988
   7 C :    0.301674
   8 C :   -0.885131
   9 C :   -0.646615
  10 C :    0.591810
  11 C :    0.961906
  12 C :   -0.880001
  13 C :   -1.280372
  14 C :    0.157055
  15 C :    1.362149
  16 C :    0.688277
  17 N :   -0.833729
  18 C :    0.147548
  19 O :   -0.792543
  20 O :   -0.286415
  21 C :   -0.526480
  22 S :    0.330575
  23 S :    0.310965
  24 H :    0.214722
  25 H :    0.181388
  26 H :    0.213050
  27 H :    0.202304
  28 H :    0.139665
  29 H :    0.128787
  30 H :    0.210006
  31 H :    0.177383
  32 H :    0.214036
  33 H :    0.219350
Sum of atomic charges:   -0.0000000

LOEWDIN ATOMIC CHARGES
----------------------
   0 C :   -0.151081
   1 O :    0.334205
   2 C :   -0.976111
   3 O :    0.452478
   4 C :   -0.285345
   5 C :   -0.326371
   6 N :    0.266463
   7 C :   -0.579624
   8 C :   -0.041164
   9 C :   -0.066574
  10 C :   -0.655225
  11 C :   -0.652875
  12 C :   -0.070597
  13 C :   -0.037350
  14 C :   -0.586738
  15 C :   -0.295677
  16 C :   -0.318291
  17 N :    0.261881
  18 C :   -0.989622
  19 O :    0.424662
  20 O :    0.380070
  21 C :   -0.149305
  22 S :    1.311652
  23 S :    1.307842
  24 H :    0.113109
  25 H :    0.097415
  26 H :    0.113528
  27 H :    0.204393
  28 H :    0.195949
  29 H :    0.194907
  30 H :    0.202048
  31 H :    0.096411
  32 H :    0.112391
  33 H :    0.112543

  Mayer bond orders larger than 0.100000
B(  0-C ,  1-O ) :   0.7044 B(  0-C ,  2-C ) :   0.1762 B(  0-C , 24-H ) :   0.9600
B(  0-C , 25-H ) :   1.0108 B(  0-C , 26-H ) :   0.9600 B(  1-O ,  2-C ) :   1.0935
B(  1-O ,  7-C ) :   0.1339 B(  1-O , 23-S ) :  -0.2697 B(  2-C ,  3-O ) :   1.4737
B(  2-C ,  4-C ) :  -0.2653 B(  2-C ,  5-C ) :   0.1098 B(  2-C ,  7-C ) :   0.1826
B(  3-O ,  4-C ) :  -0.2955 B(  3-O ,  7-C ) :   0.1314 B(  4-C ,  5-C ) :   0.3309
B(  4-C ,  6-N ) :   0.3669 B(  4-C ,  7-C ) :   0.9174 B(  5-C ,  6-N ) :   1.6793
B(  5-C ,  7-C ) :   0.3434 B(  5-C ,  8-C ) :   0.2000 B(  7-C ,  8-C ) :   0.5314
B(  7-C ,  9-C ) :   0.1454 B(  7-C , 11-C ) :   0.1079 B(  7-C , 23-S ) :   1.1050
B(  8-C ,  9-C ) :   0.8847 B(  8-C , 10-C ) :   0.1240 B(  8-C , 27-H ) :   1.0576
B(  9-C , 10-C ) :   0.1862 B(  9-C , 12-C ) :   0.1417 B(  9-C , 14-C ) :  -0.1278
B(  9-C , 28-H ) :   1.1794 B( 10-C , 11-C ) :   1.1153 B( 10-C , 14-C ) :   0.1604
B( 10-C , 22-S ) :   0.1256 B( 10-C , 23-S ) :   0.4110 B( 10-C , 28-H ) :  -0.1836
B( 11-C , 22-S ) :   0.4165 B( 11-C , 23-S ) :   0.2200 B( 11-C , 29-H ) :  -0.2083
B( 12-C , 13-C ) :   1.3802 B( 12-C , 14-C ) :   0.1093 B( 12-C , 29-H ) :   1.1907
B( 13-C , 14-C ) :   0.3657 B( 13-C , 16-C ) :   0.1768 B( 13-C , 17-N ) :   0.1519
B( 13-C , 30-H ) :   1.0632 B( 14-C , 15-C ) :   0.6555 B( 14-C , 16-C ) :  -0.1714
B( 14-C , 17-N ) :  -0.1158 B( 14-C , 18-C ) :   0.5629 B( 14-C , 19-O ) :   0.2375
B( 14-C , 20-O ) :   0.1933 B( 14-C , 22-S ) :   1.0178 B( 15-C , 16-C ) :   0.9829
B( 15-C , 17-N ) :   0.3069 B( 15-C , 18-C ) :  -0.3668 B( 15-C , 19-O ) :  -0.1273
B( 15-C , 20-O ) :  -0.2406 B( 15-C , 22-S ) :   0.2862 B( 16-C , 17-N ) :   1.7308
B( 16-C , 18-C ) :  -0.1699 B( 18-C , 19-O ) :   1.3237 B( 18-C , 20-O ) :   0.9734
B( 18-C , 21-C ) :   0.1272 B( 18-C , 22-S ) :  -0.2339 B( 19-O , 22-S ) :  -0.1613
B( 20-O , 21-C ) :   0.7677 B( 21-C , 31-H ) :   1.0200 B( 21-C , 32-H ) :   0.9553
B( 21-C , 33-H ) :   0.9492

MP2 TOTAL ENERGY:    -1821.876299480 Eh

-----------------------------------------------------------------------------
         ABSORPTION SPECTRUM VIA TRANSITION ELECTRIC DIPOLE MOMENTS
-----------------------------------------------------------------------------
State   Energy    Wavelength  fosc         T2        TX        TY        TZ
        (cm-1)      (nm)                 (au**2)    (au)      (au)      (au)
-----------------------------------------------------------------------------
   1   18379.2    544.1   1.953014822  34.98279  -5.79047  -0.39512  -1.13894
   2   28088.4    356.0   0.105734745   1.23927  -1.10030  -0.02076  -0.16788
   3   27693.5    361.1   0.066973769   0.79616   0.88314  -0.00513   0.12726
   4   28767.5    347.6   0.000583398   0.00668  -0.07639   0.02748  -0.00925
   5   33231.0    300.9   0.002642914   0.02618   0.14198   0.06509   0.04227
   6   30077.2    332.5   0.000158846   0.00174  -0.00827  -0.02278   0.03393
   7   31470.8    317.8   0.000111136   0.00116   0.00299   0.01877  -0.02831
   8   41961.2    238.3   0.012832511   0.10068  -0.01404  -0.19356   0.25103
   9   37731.8    265.0   0.083337770   0.72713  -0.84702   0.07898  -0.05864
  10   40570.8    246.5   0.041625262   0.33777  -0.55547   0.16455   0.04633

Dispersion correction           -0.039884408
FINAL SINGLE POINT ENERGY     -1820.434435030737

DIPOLE MOMENT
-------------
                                X             Y             Z
Electronic contribution:     -3.27627      -1.29149      -1.58018
Nuclear contribution   :      4.66723       1.89096       2.20115
                        -----------------------------------------
Total Dipole Moment    :      1.39096       0.59948       0.62097
                        -----------------------------------------
Magnitude (a.u.)       :      1.63699
Magnitude (Debye)      :      4.16091

Rotational constants in cm-1:     0.020042     0.002528     0.002247
Rotational constants in MHz :   600.843572    75.786229    67.358155

                             ****ORCA TERMINATED NORMALLY****
TOTAL RUN TIME: 0 days 14 hours 31 minutes 35 seconds 221 msec
