                         Program Version 5.0.2 -  RELEASE  -
|  1> ! pbe0 d3bj aug-cc-PVTZ RIJCOSX Opt
|  2> %maxcore 4000
|  3> %basis
|  4>  AuxJ "aug-cc-PVTZ/JK"
|  5>  AuxC "aug-cc-PVTZ/C"
|  6>  newGTO H "cc-PVTZ" end
|  7>  newAuxJGTO H "cc-PVTZ/JK" end
|  8>  newAuxCGTO H "cc-PVTZ/C" end
|  9> end
| 10> %cpcm
| 11>  SMD true
| 12>  SMDsolvent "toluene"
| 13> end
| 14> %pal nprocs 4 end
| 15> * xyz 0 1
| 16> C         -5.31150        2.61790        1.32570
| 17> O         -4.65010        1.57880        0.62110
| 18> C         -5.43770        0.76910       -0.11470
| 19> O         -6.63310        0.89650       -0.19020
| 20> C         -4.64760       -0.26950       -0.79620
| 21> C         -5.35990       -1.18080       -1.59740
| 22> N         -5.92160       -1.93440       -2.25580
| 23> C         -3.28260       -0.38980       -0.68930
| 24> C         -2.48560       -1.38640       -1.33270
| 25> C         -1.16260       -1.28720       -1.06210
| 26> C         -0.83540       -0.21040       -0.19360
| 27> C          0.41760        0.12990        0.25070
| 28> C          0.74620        1.20760        1.11690
| 29> C          2.07100        1.29910        1.38500
| 30> C          2.84920        0.29380        0.74020
| 31> C          4.21240        0.11950        0.81350
| 32> C          5.03340        0.96040        1.57580
| 33> N          5.69720        1.65530        2.20440
| 34> C          4.78920       -0.99170        0.05580
| 35> O          4.09660       -1.73700       -0.61280
| 36> O          6.10900       -1.09560        0.17300
| 37> C          6.71900       -2.15840       -0.54510
| 38> S          1.86150       -0.76880       -0.21460
| 39> S         -2.28500        0.67120        0.26550
| 40> H         -6.03230        2.19710        2.02970
| 41> H         -4.53570        3.16730        1.85220
| 42> H         -5.84090        3.26980        0.62790
| 43> H         -2.93840       -2.12910       -1.96550
| 44> H         -0.39970       -1.94040       -1.44770
| 45> H         -0.01040        1.86800        1.50330
| 46> H          2.53440        2.03820        2.01450
| 47> H          7.78330       -2.08840       -0.33750
| 48> H          6.32330       -3.11920       -0.20950
| 49> H          6.52710       -2.05250       -1.61490
| 50> *
| 51>
| 52>
| 53> $new_job
| 54> ! b2gp-plyp aug-cc-PVTZ RIJCOSX SP
| 55> %maxcore 4000
| 56> %basis
| 57>  AuxJ "aug-cc-PVTZ/JK"
| 58>  AuxC "aug-cc-PVTZ/C"
| 59>  newGTO H "cc-PVTZ" end
| 60>  newAuxJGTO H "cc-PVTZ/JK" end
| 61>  newAuxCGTO H "cc-PVTZ/C" end
| 62> end
| 63> %cpcm
| 64>  SMD true
| 65>  SMDsolvent "toluene"
| 66> end
| 67> %pal nprocs 4 end
| 68> %tddft
| 69>  nroots 10
| 70>  maxdim 7
| 71> end
| 72> * xyzfile 0 1
| 73>
| 74>                          ****END OF INPUT****
 Total Charge           Charge          ....    0
 Multiplicity           Mult            ....    1
 Number of Electrons    NEL             ....  184
Dispersion correction           -0.043472554
FINAL SINGLE POINT ENERGY     -1821.477231389964
Dispersion correction            ... done
Dispersion correction           -0.043160771
FINAL SINGLE POINT ENERGY     -1821.481140308860
Dispersion correction            ... done
Dispersion correction           -0.043212654
FINAL SINGLE POINT ENERGY     -1821.481523477414
Dispersion correction            ... done
FINAL SINGLE POINT ENERGY     -1821.481512627947
FINAL SINGLE POINT ENERGY     -1821.481619260814
FINAL SINGLE POINT ENERGY     -1821.481608842656
FINAL SINGLE POINT ENERGY     -1821.481632772384
Dispersion correction            ... done
Dispersion correction           -0.043215194
FINAL SINGLE POINT ENERGY     -1821.481631881872
Dispersion correction            ... done
                    ***********************HURRAY********************
Dispersion correction           -0.043213647
FINAL SINGLE POINT ENERGY     -1821.481636082755

CARTESIAN COORDINATES (ANGSTROEM)
---------------------------------
  C     -5.478689    2.682299    1.344121
  O     -4.764134    1.646744    0.666810
  C     -5.504559    0.810246   -0.062748
  O     -6.703614    0.878138   -0.164503
  C     -4.680534   -0.207964   -0.732002
  C     -5.395586   -1.128067   -1.538368
  N     -5.951578   -1.889996   -2.201268
  C     -3.316971   -0.338731   -0.648641
  C     -2.555486   -1.352225   -1.327451
  C     -1.227940   -1.289032   -1.097731
  C     -0.845504   -0.226157   -0.223485
  C      0.413674    0.090062    0.196887
  C      0.788901    1.153384    1.073087
  C      2.115160    1.212657    1.314730
  C      2.870613    0.194313    0.642059
  C      4.229330    0.026977    0.727476
  C      4.989132    0.903862    1.535240
  N      5.592227    1.628631    2.199911
  C      4.897719   -1.055082    0.000269
  O      4.302673   -1.830799   -0.715754
  O      6.206485   -1.085001    0.217403
  C      6.921749   -2.120789   -0.458840
  S      1.829760   -0.823419   -0.307496
  S     -2.259384    0.681611    0.284269
  H     -6.193167    2.254683    2.047011
  H     -4.726418    3.260883    1.874363
  H     -6.004898    3.311647    0.626724
  H     -3.039025   -2.084573   -1.959274
  H     -0.506814   -1.971972   -1.527279
  H      0.066390    1.838665    1.496634
  H      2.597564    1.942382    1.950438
  H      7.962478   -1.993339   -0.173072
  H      6.560534   -3.100401   -0.145483
  H      6.810215   -2.019738   -1.538438

 Multiplicity           Mult            ....    1
 Number of Electrons    NEL             ....  184
 Basis Dimension        Dim             .... 1252

ORBITAL ENERGIES
----------------

  NO   OCC          E(Eh)            E(eV)
   0   2.0000     -90.692204     -2467.8603
   1   2.0000     -90.690328     -2467.8093
   2   2.0000     -20.007660      -544.4361
   3   2.0000     -20.005390      -544.3743
   4   2.0000     -19.946234      -542.7646
   5   2.0000     -19.942974      -542.6759
   6   2.0000     -15.040068      -409.2610
   7   2.0000     -15.038205      -409.2104
   8   2.0000     -10.941006      -297.7199
   9   2.0000     -10.940035      -297.6935
  10   2.0000     -10.885656      -296.2137
  11   2.0000     -10.883280      -296.1491
  12   2.0000     -10.864328      -295.6334
  13   2.0000     -10.861417      -295.5542
  14   2.0000     -10.842587      -295.0418
  15   2.0000     -10.839251      -294.9510
  16   2.0000     -10.835999      -294.8625
  17   2.0000     -10.835351      -294.8449
  18   2.0000     -10.834955      -294.8341
  19   2.0000     -10.834201      -294.8136
  20   2.0000     -10.832962      -294.7799
  21   2.0000     -10.831485      -294.7397
  22   2.0000     -10.827159      -294.6220
  23   2.0000     -10.826630      -294.6076
  24   2.0000      -8.577347      -233.4015
  25   2.0000      -8.574951      -233.3363
  26   2.0000      -6.382101      -173.6658
  27   2.0000      -6.379895      -173.6058
  28   2.0000      -6.379669      -173.5996
  29   2.0000      -6.377416      -173.5383
  30   2.0000      -6.377388      -173.5376
  31   2.0000      -6.374982      -173.4721
  32   2.0000      -1.335308       -36.3356
  33   2.0000      -1.335136       -36.3309
  34   2.0000      -1.236713       -33.6527
  35   2.0000      -1.235508       -33.6199
  36   2.0000      -1.116984       -30.3947
  37   2.0000      -1.107532       -30.1375
  38   2.0000      -1.099798       -29.9270
  39   2.0000      -1.085352       -29.5339
  40   2.0000      -1.018064       -27.7029
  41   2.0000      -0.992744       -27.0139
  42   2.0000      -0.946577       -25.7577
  43   2.0000      -0.933840       -25.4111
  44   2.0000      -0.912688       -24.8355
  45   2.0000      -0.891984       -24.2721
  46   2.0000      -0.874455       -23.7951
  47   2.0000      -0.836115       -22.7518
  48   2.0000      -0.774528       -21.0760
  49   2.0000      -0.742950       -20.2167
  50   2.0000      -0.731112       -19.8946
  51   2.0000      -0.724067       -19.7029
  52   2.0000      -0.711854       -19.3705
  53   2.0000      -0.692196       -18.8356
  54   2.0000      -0.673467       -18.3260
  55   2.0000      -0.662226       -18.0201
  56   2.0000      -0.655370       -17.8335
  57   2.0000      -0.624278       -16.9875
  58   2.0000      -0.614481       -16.7209
  59   2.0000      -0.612937       -16.6789
  60   2.0000      -0.606438       -16.5020
  61   2.0000      -0.599528       -16.3140
  62   2.0000      -0.577361       -15.7108
  63   2.0000      -0.562330       -15.3018
  64   2.0000      -0.543695       -14.7947
  65   2.0000      -0.541587       -14.7373
  66   2.0000      -0.538353       -14.6493
  67   2.0000      -0.530807       -14.4440
  68   2.0000      -0.526833       -14.3359
  69   2.0000      -0.516363       -14.0510
  70   2.0000      -0.509531       -13.8650
  71   2.0000      -0.502347       -13.6695
  72   2.0000      -0.493565       -13.4306
  73   2.0000      -0.487838       -13.2747
  74   2.0000      -0.486120       -13.2280
  75   2.0000      -0.480413       -13.0727
  76   2.0000      -0.471070       -12.8185
  77   2.0000      -0.467194       -12.7130
  78   2.0000      -0.465433       -12.6651
  79   2.0000      -0.453009       -12.3270
  80   2.0000      -0.442679       -12.0459
  81   2.0000      -0.432301       -11.7635
  82   2.0000      -0.427088       -11.6217
  83   2.0000      -0.416807       -11.3419
  84   2.0000      -0.415237       -11.2992
  85   2.0000      -0.403531       -10.9806
  86   2.0000      -0.395550       -10.7635
  87   2.0000      -0.392316       -10.6755
  88   2.0000      -0.365658        -9.9501
  89   2.0000      -0.355852        -9.6832
  90   2.0000      -0.336997        -9.1701
  91   2.0000      -0.265245        -7.2177
  92   0.0000      -0.087983        -2.3941
  93   0.0000      -0.015582        -0.4240
  94   0.0000       0.018238         0.4963
  95   0.0000       0.023050         0.6272
  96   0.0000       0.028796         0.7836

MULLIKEN ATOMIC CHARGES
-----------------------
   0 C :   -0.575565
   1 O :   -0.159547
   2 C :   -0.076956
   3 O :   -0.870005
   4 C :    1.422930
   5 C :    0.425367
   6 N :   -0.825525
   7 C :    0.316104
   8 C :   -0.898436
   9 C :   -0.657820
  10 C :    0.634850
  11 C :    1.014096
  12 C :   -0.904534
  13 C :   -1.302649
  14 C :    0.209685
  15 C :    1.395070
  16 C :    0.668849
  17 N :   -0.845312
  18 C :    0.140379
  19 O :   -0.803173
  20 O :   -0.292109
  21 C :   -0.554409
  22 S :    0.269309
  23 S :    0.258226
  24 H :    0.224348
  25 H :    0.191378
  26 H :    0.222410
  27 H :    0.216409
  28 H :    0.152476
  29 H :    0.142044
  30 H :    0.223334
  31 H :    0.187081
  32 H :    0.222821
  33 H :    0.228875
Sum of atomic charges:   -0.0000000

LOEWDIN ATOMIC CHARGES
----------------------
   0 C :   -0.148824
   1 O :    0.329900
   2 C :   -0.974634
   3 O :    0.447718
   4 C :   -0.281825
   5 C :   -0.327173
   6 N :    0.264071
   7 C :   -0.577805
   8 C :   -0.039335
   9 C :   -0.064982
  10 C :   -0.655074
  11 C :   -0.652711
  12 C :   -0.068933
  13 C :   -0.035409
  14 C :   -0.584788
  15 C :   -0.292150
  16 C :   -0.318957
  17 N :    0.259703
  18 C :   -0.988484
  19 O :    0.419100
  20 O :    0.375899
  21 C :   -0.147090
  22 S :    1.310958
  23 S :    1.306795
  24 H :    0.113036
  25 H :    0.097359
  26 H :    0.113454
  27 H :    0.204648
  28 H :    0.196561
  29 H :    0.195558
  30 H :    0.202299
  31 H :    0.096354
  32 H :    0.112298
  33 H :    0.112463

  Mayer bond orders larger than 0.100000
B(  0-C ,  1-O ) :   0.7062 B(  0-C ,  2-C ) :   0.1726 B(  0-C , 24-H ) :   0.9583
B(  0-C , 25-H ) :   1.0087 B(  0-C , 26-H ) :   0.9584 B(  1-O ,  2-C ) :   1.1293
B(  1-O ,  7-C ) :   0.1525 B(  1-O , 23-S ) :  -0.2775 B(  2-C ,  3-O ) :   1.5061
B(  2-C ,  4-C ) :  -0.2929 B(  2-C ,  5-C ) :   0.1299 B(  2-C ,  7-C ) :   0.1883
B(  3-O ,  4-C ) :  -0.3225 B(  3-O ,  7-C ) :   0.1341 B(  4-C ,  5-C ) :   0.2882
B(  4-C ,  6-N ) :   0.3519 B(  4-C ,  7-C ) :   0.9296 B(  5-C ,  6-N ) :   1.6876
B(  5-C ,  7-C ) :   0.3561 B(  5-C ,  8-C ) :   0.2071 B(  7-C ,  8-C ) :   0.5215
B(  7-C ,  9-C ) :   0.1132 B(  7-C , 23-S ) :   1.1887 B(  8-C ,  9-C ) :   0.9316
B(  8-C , 10-C ) :   0.1292 B(  8-C , 27-H ) :   1.0529 B(  9-C , 10-C ) :   0.1248
B(  9-C , 12-C ) :   0.1171 B(  9-C , 14-C ) :  -0.1192 B(  9-C , 28-H ) :   1.1865
B( 10-C , 11-C ) :   1.1930 B( 10-C , 14-C ) :   0.1402 B( 10-C , 22-S ) :   0.1141
B( 10-C , 23-S ) :   0.4128 B( 10-C , 28-H ) :  -0.2013 B( 11-C , 13-C ) :  -0.1090
B( 11-C , 22-S ) :   0.4133 B( 11-C , 23-S ) :   0.2126 B( 11-C , 29-H ) :  -0.2224
B( 12-C , 13-C ) :   1.4486 B( 12-C , 29-H ) :   1.1981 B( 13-C , 14-C ) :   0.3049
B( 13-C , 16-C ) :   0.1879 B( 13-C , 17-N ) :   0.1560 B( 13-C , 18-C ) :   0.1062
B( 13-C , 30-H ) :   1.0619 B( 14-C , 15-C ) :   0.6911 B( 14-C , 16-C ) :  -0.1398
B( 14-C , 17-N ) :  -0.1258 B( 14-C , 18-C ) :   0.5495 B( 14-C , 19-O ) :   0.2318
B( 14-C , 20-O ) :   0.1828 B( 14-C , 22-S ) :   1.0851 B( 15-C , 16-C ) :   0.9266
B( 15-C , 17-N ) :   0.2948 B( 15-C , 18-C ) :  -0.3695 B( 15-C , 19-O ) :  -0.1436
B( 15-C , 20-O ) :  -0.2564 B( 15-C , 22-S ) :   0.2799 B( 16-C , 17-N ) :   1.7353
B( 16-C , 18-C ) :  -0.1486 B( 18-C , 19-O ) :   1.3406 B( 18-C , 20-O ) :   1.0140
B( 18-C , 21-C ) :   0.1205 B( 18-C , 22-S ) :  -0.2342 B( 19-O , 22-S ) :  -0.1624
B( 20-O , 21-C ) :   0.7690 B( 21-C , 31-H ) :   1.0187 B( 21-C , 32-H ) :   0.9547
B( 21-C , 33-H ) :   0.9477

MP2 TOTAL ENERGY:    -1821.590157412 Eh

-----------------------------------------------------------------------------
         ABSORPTION SPECTRUM VIA TRANSITION ELECTRIC DIPOLE MOMENTS
-----------------------------------------------------------------------------
State   Energy    Wavelength  fosc         T2        TX        TY        TZ
        (cm-1)      (nm)                 (au**2)    (au)      (au)      (au)
-----------------------------------------------------------------------------
   1   18801.7    531.9   1.934521627  33.87290  -5.69510  -0.40221  -1.13001
   2   30092.0    332.3   0.122391962   1.33899   1.14777  -0.01467   0.14625
   3   30053.3    332.7   0.008949421   0.09803   0.30766  -0.05047   0.02883
   4   28930.9    345.7   0.001708721   0.01944  -0.13681  -0.01785  -0.02022
   5   33519.7    298.3   0.002082053   0.02045   0.12264   0.06115   0.04084
   6   32836.9    304.5   0.000217305   0.00218   0.01005   0.02570  -0.03764
   7   34839.2    287.0   0.000322209   0.00304  -0.00726  -0.03089   0.04514
   8   42971.8    232.7   0.014201829   0.10880  -0.02428  -0.20202   0.25962
   9   42180.1    237.1   0.144866577   1.13067   1.04556  -0.19344   0.00736
  10   44423.0    225.1   0.001086801   0.00805  -0.01811  -0.05575   0.06796

Dispersion correction           -0.031490850
FINAL SINGLE POINT ENERGY     -1819.775813522253

DIPOLE MOMENT
-------------
                                X             Y             Z
Electronic contribution:     -3.26889      -1.28039      -1.57452
Nuclear contribution   :      4.66697       1.89010       2.20229
                        -----------------------------------------
Total Dipole Moment    :      1.39809       0.60971       0.62776
                        -----------------------------------------
Magnitude (a.u.)       :      1.64939
Magnitude (Debye)      :      4.19241

Rotational constants in cm-1:     0.020042     0.002528     0.002247
Rotational constants in MHz :   600.840100    75.786122    67.358154

                             ****ORCA TERMINATED NORMALLY****
TOTAL RUN TIME: 0 days 9 hours 53 minutes 6 seconds 927 msec
