                         Program Version 5.0.2 -  RELEASE  -
|  1> ! pbe0 aug-cc-PVTZ RIJCOSX Opt
|  2> %maxcore 4000
|  3> %basis
|  4>  AuxJ "aug-cc-PVTZ/JK"
|  5>  AuxC "aug-cc-PVTZ/C"
|  6>  newGTO H "cc-PVTZ" end
|  7>  newAuxJGTO H "cc-PVTZ/JK" end
|  8>  newAuxCGTO H "cc-PVTZ/C" end
|  9> end
| 10> %cpcm
| 11>  SMD true
| 12>  SMDsolvent "toluene"
| 13> end
| 14> %pal nprocs 4 end
| 15> * xyz 0 1
| 16> C         -5.31150        2.61790        1.32570
| 17> O         -4.65010        1.57880        0.62110
| 18> C         -5.43770        0.76910       -0.11470
| 19> O         -6.63310        0.89650       -0.19020
| 20> C         -4.64760       -0.26950       -0.79620
| 21> C         -5.35990       -1.18080       -1.59740
| 22> N         -5.92160       -1.93440       -2.25580
| 23> C         -3.28260       -0.38980       -0.68930
| 24> C         -2.48560       -1.38640       -1.33270
| 25> C         -1.16260       -1.28720       -1.06210
| 26> C         -0.83540       -0.21040       -0.19360
| 27> C          0.41760        0.12990        0.25070
| 28> C          0.74620        1.20760        1.11690
| 29> C          2.07100        1.29910        1.38500
| 30> C          2.84920        0.29380        0.74020
| 31> C          4.21240        0.11950        0.81350
| 32> C          5.03340        0.96040        1.57580
| 33> N          5.69720        1.65530        2.20440
| 34> C          4.78920       -0.99170        0.05580
| 35> O          4.09660       -1.73700       -0.61280
| 36> O          6.10900       -1.09560        0.17300
| 37> C          6.71900       -2.15840       -0.54510
| 38> S          1.86150       -0.76880       -0.21460
| 39> S         -2.28500        0.67120        0.26550
| 40> H         -6.03230        2.19710        2.02970
| 41> H         -4.53570        3.16730        1.85220
| 42> H         -5.84090        3.26980        0.62790
| 43> H         -2.93840       -2.12910       -1.96550
| 44> H         -0.39970       -1.94040       -1.44770
| 45> H         -0.01040        1.86800        1.50330
| 46> H          2.53440        2.03820        2.01450
| 47> H          7.78330       -2.08840       -0.33750
| 48> H          6.32330       -3.11920       -0.20950
| 49> H          6.52710       -2.05250       -1.61490
| 50> *
| 51>
| 52>
| 53> $new_job
| 54> ! pbe0 aug-cc-PVTZ RIJCOSX SP
| 55> %maxcore 4000
| 56> %basis
| 57>  AuxJ "aug-cc-PVTZ/JK"
| 58>  AuxC "aug-cc-PVTZ/C"
| 59>  newGTO H "cc-PVTZ" end
| 60>  newAuxJGTO H "cc-PVTZ/JK" end
| 61>  newAuxCGTO H "cc-PVTZ/C" end
| 62> end
| 63> %cpcm
| 64>  SMD true
| 65>  SMDsolvent "toluene"
| 66> end
| 67> %pal nprocs 4 end
| 68> %tddft
| 69>  nroots 10
| 70>  maxdim 7
| 71> end
| 72> * xyzfile 0 1
| 73>
| 74>                          ****END OF INPUT****
 Total Charge           Charge          ....    0
 Multiplicity           Mult            ....    1
 Number of Electrons    NEL             ....  184
FINAL SINGLE POINT ENERGY     -1821.433758835565
FINAL SINGLE POINT ENERGY     -1821.437935395978
FINAL SINGLE POINT ENERGY     -1821.438334643258
FINAL SINGLE POINT ENERGY     -1821.438328700705
FINAL SINGLE POINT ENERGY     -1821.438436450872
FINAL SINGLE POINT ENERGY     -1821.438427965659
FINAL SINGLE POINT ENERGY     -1821.438452358710
FINAL SINGLE POINT ENERGY     -1821.438451875362
                    ***********************HURRAY********************
FINAL SINGLE POINT ENERGY     -1821.438454846971

CARTESIAN COORDINATES (ANGSTROEM)
---------------------------------
  C     -5.502789    2.685337    1.343645
  O     -4.779017    1.652149    0.670604
  C     -5.511911    0.812834   -0.063542
  O     -6.710744    0.876727   -0.171978
  C     -4.682732   -0.204919   -0.730573
  C     -5.398018   -1.125079   -1.538342
  N     -5.955302   -1.885951   -2.201645
  C     -3.318487   -0.336579   -0.646261
  C     -2.556208   -1.349880   -1.324343
  C     -1.228595   -1.287558   -1.094742
  C     -0.843613   -0.225444   -0.220714
  C      0.417025    0.090245    0.199079
  C      0.795651    1.152895    1.074574
  C      2.122267    1.211175    1.314654
  C      2.877699    0.192794    0.642086
  C      4.237279    0.024687    0.726332
  C      4.999021    0.901837    1.533502
  N      5.604633    1.625808    2.197054
  C      4.906205   -1.058525   -0.001462
  O      4.310831   -1.834359   -0.717038
  O      6.215420   -1.088863    0.214917
  C      6.932082   -2.124693   -0.460757
  S      1.833468   -0.823715   -0.305986
  S     -2.258558    0.682200    0.286684
  H     -6.220094    2.255135    2.042181
  H     -4.756692    3.267463    1.878967
  H     -6.027082    3.312892    0.623155
  H     -3.038632   -2.082785   -1.956686
  H     -0.509307   -1.972001   -1.525428
  H      0.075523    1.839914    1.499821
  H      2.604317    1.941632    1.950116
  H      7.972742   -1.996001   -0.174731
  H      6.572461   -3.104818   -0.146938
  H      6.821457   -2.024651   -1.540607

 Multiplicity           Mult            ....    1
 Number of Electrons    NEL             ....  184
 Basis Dimension        Dim             .... 1252

ORBITAL ENERGIES
----------------

  NO   OCC          E(Eh)            E(eV)
   0   2.0000     -89.111396     -2424.8444
   1   2.0000     -89.109326     -2424.7880
   2   2.0000     -19.278196      -524.5864
   3   2.0000     -19.276085      -524.5289
   4   2.0000     -19.215702      -522.8858
   5   2.0000     -19.209668      -522.7216
   6   2.0000     -14.394469      -391.6934
   7   2.0000     -14.393087      -391.6558
   8   2.0000     -10.375317      -282.3267
   9   2.0000     -10.373660      -282.2816
  10   2.0000     -10.326304      -280.9930
  11   2.0000     -10.323775      -280.9242
  12   2.0000     -10.313332      -280.6400
  13   2.0000     -10.310665      -280.5674
  14   2.0000     -10.295286      -280.1490
  15   2.0000     -10.292589      -280.0756
  16   2.0000     -10.283051      -279.8161
  17   2.0000     -10.280580      -279.7488
  18   2.0000     -10.279481      -279.7189
  19   2.0000     -10.279405      -279.7168
  20   2.0000     -10.279390      -279.7164
  21   2.0000     -10.277426      -279.6630
  22   2.0000     -10.275259      -279.6040
  23   2.0000     -10.274816      -279.5920
  24   2.0000      -8.068420      -219.5529
  25   2.0000      -8.065779      -219.4810
  26   2.0000      -6.005686      -163.4230
  27   2.0000      -6.003042      -163.3511
  28   2.0000      -6.001947      -163.3213
  29   2.0000      -5.999268      -163.2484
  30   2.0000      -5.998163      -163.2183
  31   2.0000      -5.995607      -163.1488
  32   2.0000      -1.162688       -31.6383
  33   2.0000      -1.161952       -31.6183
  34   2.0000      -1.070539       -29.1308
  35   2.0000      -1.067848       -29.0576
  36   2.0000      -0.967931       -26.3387
  37   2.0000      -0.955635       -26.0042
  38   2.0000      -0.947761       -25.7899
  39   2.0000      -0.938401       -25.5352
  40   2.0000      -0.878447       -23.9038
  41   2.0000      -0.856323       -23.3017
  42   2.0000      -0.815144       -22.1812
  43   2.0000      -0.807323       -21.9684
  44   2.0000      -0.788853       -21.4658
  45   2.0000      -0.770594       -20.9689
  46   2.0000      -0.755418       -20.5560
  47   2.0000      -0.717334       -19.5196
  48   2.0000      -0.664699       -18.0874
  49   2.0000      -0.640203       -17.4208
  50   2.0000      -0.625773       -17.0282
  51   2.0000      -0.621727       -16.9180
  52   2.0000      -0.607383       -16.5277
  53   2.0000      -0.591889       -16.1061
  54   2.0000      -0.577627       -15.7180
  55   2.0000      -0.565406       -15.3855
  56   2.0000      -0.559288       -15.2190
  57   2.0000      -0.532792       -14.4980
  58   2.0000      -0.521439       -14.1891
  59   2.0000      -0.521021       -14.1777
  60   2.0000      -0.509437       -13.8625
  61   2.0000      -0.504044       -13.7157
  62   2.0000      -0.489167       -13.3109
  63   2.0000      -0.473251       -12.8778
  64   2.0000      -0.467821       -12.7300
  65   2.0000      -0.461333       -12.5535
  66   2.0000      -0.454589       -12.3700
  67   2.0000      -0.452172       -12.3042
  68   2.0000      -0.446021       -12.1368
  69   2.0000      -0.435692       -11.8558
  70   2.0000      -0.434905       -11.8344
  71   2.0000      -0.422427       -11.4948
  72   2.0000      -0.418180       -11.3793
  73   2.0000      -0.404385       -11.0039
  74   2.0000      -0.397548       -10.8178
  75   2.0000      -0.397186       -10.8080
  76   2.0000      -0.395340       -10.7578
  77   2.0000      -0.392272       -10.6743
  78   2.0000      -0.387690       -10.5496
  79   2.0000      -0.386912       -10.5284
  80   2.0000      -0.373287       -10.1577
  81   2.0000      -0.367588       -10.0026
  82   2.0000      -0.363021        -9.8783
  83   2.0000      -0.347402        -9.4533
  84   2.0000      -0.338967        -9.2238
  85   2.0000      -0.336917        -9.1680
  86   2.0000      -0.315543        -8.5864
  87   2.0000      -0.314565        -8.5597
  88   2.0000      -0.312976        -8.5165
  89   2.0000      -0.305346        -8.3089
  90   2.0000      -0.292925        -7.9709
  91   2.0000      -0.234694        -6.3864
  92   0.0000      -0.143311        -3.8997
  93   0.0000      -0.076933        -2.0934
  94   0.0000      -0.024317        -0.6617
  95   0.0000      -0.008604        -0.2341
  96   0.0000      -0.001858        -0.0506

MULLIKEN ATOMIC CHARGES
-----------------------
   0 C :   -0.497127
   1 O :   -0.130429
   2 C :    0.059801
   3 O :   -0.781140
   4 C :    1.218291
   5 C :    0.450349
   6 N :   -0.762881
   7 C :    0.039833
   8 C :   -0.849361
   9 C :   -0.555704
  10 C :    0.530437
  11 C :    0.768817
  12 C :   -0.746334
  13 C :   -1.124614
  14 C :   -0.069963
  15 C :    1.225311
  16 C :    0.668745
  17 N :   -0.778161
  18 C :    0.217082
  19 O :   -0.723286
  20 O :   -0.248860
  21 C :   -0.466983
  22 S :    0.327552
  23 S :    0.348850
  24 H :    0.198286
  25 H :    0.173079
  26 H :    0.197232
  27 H :    0.207719
  28 H :    0.164157
  29 H :    0.154079
  30 H :    0.217854
  31 H :    0.168129
  32 H :    0.197902
  33 H :    0.201341
Sum of atomic charges:   -0.0000000

LOEWDIN ATOMIC CHARGES
----------------------
   0 C :   -0.157550
   1 O :    0.348722
   2 C :   -0.986151
   3 O :    0.467793
   4 C :   -0.293843
   5 C :   -0.325604
   6 N :    0.274399
   7 C :   -0.587103
   8 C :   -0.048957
   9 C :   -0.073250
  10 C :   -0.657309
  11 C :   -0.654879
  12 C :   -0.077123
  13 C :   -0.045089
  14 C :   -0.594104
  15 C :   -0.304327
  16 C :   -0.317439
  17 N :    0.268903
  18 C :   -0.998035
  19 O :    0.442866
  20 O :    0.392691
  21 C :   -0.154810
  22 S :    1.313555
  23 S :    1.311353
  24 H :    0.114263
  25 H :    0.098558
  26 H :    0.114692
  27 H :    0.206107
  28 H :    0.197043
  29 H :    0.195874
  30 H :    0.203723
  31 H :    0.097761
  32 H :    0.113577
  33 H :    0.113694

  Mayer bond orders larger than 0.100000
B(  0-C ,  1-O ) :   0.8251 B(  0-C ,  2-C ) :   0.1688 B(  0-C , 24-H ) :   0.9542
B(  0-C , 25-H ) :   0.9992 B(  0-C , 26-H ) :   0.9545 B(  1-O ,  2-C ) :   1.0053
B(  1-O ,  7-C ) :   0.1622 B(  1-O , 23-S ) :  -0.2725 B(  2-C ,  3-O ) :   1.4242
B(  2-C ,  7-C ) :   0.1587 B(  3-O ,  4-C ) :  -0.2332 B(  3-O ,  7-C ) :   0.1392
B(  4-C ,  5-C ) :   0.6317 B(  4-C ,  6-N ) :   0.3351 B(  4-C ,  7-C ) :   0.9799
B(  4-C ,  8-C ) :  -0.1946 B(  5-C ,  6-N ) :   1.7045 B(  5-C ,  7-C ) :   0.1489
B(  5-C ,  8-C ) :   0.2297 B(  7-C ,  8-C ) :   0.9280 B(  7-C ,  9-C ) :   0.1746
B(  7-C , 10-C ) :  -0.2004 B(  7-C , 11-C ) :   0.1258 B(  7-C , 23-S ) :   0.9697
B(  8-C ,  9-C ) :   0.9847 B(  8-C , 27-H ) :   1.0034 B(  9-C , 10-C ) :   0.5892
B(  9-C , 12-C ) :   0.1903 B(  9-C , 14-C ) :  -0.1200 B(  9-C , 28-H ) :   1.0650
B( 10-C , 11-C ) :   1.0159 B( 10-C , 14-C ) :   0.1664 B( 10-C , 22-S ) :   0.1415
B( 10-C , 23-S ) :   0.4179 B( 11-C , 12-C ) :   0.4983 B( 11-C , 14-C ) :  -0.1834
B( 11-C , 22-S ) :   0.4448 B( 11-C , 23-S ) :   0.1999 B( 11-C , 29-H ) :  -0.1089
B( 12-C , 13-C ) :   1.3406 B( 12-C , 14-C ) :   0.1862 B( 12-C , 29-H ) :   1.0737
B( 13-C , 14-C ) :   0.8222 B( 13-C , 16-C ) :   0.2066 B( 13-C , 17-N ) :   0.1378
B( 13-C , 30-H ) :   0.9898 B( 14-C , 15-C ) :   0.6756 B( 14-C , 16-C ) :  -0.2613
B( 14-C , 17-N ) :  -0.1101 B( 14-C , 18-C ) :   0.5094 B( 14-C , 19-O ) :   0.2060
B( 14-C , 20-O ) :   0.1942 B( 14-C , 22-S ) :   0.9259 B( 15-C , 16-C ) :   1.1417
B( 15-C , 17-N ) :   0.2892 B( 15-C , 20-O ) :  -0.1712 B( 15-C , 22-S ) :   0.2030
B( 16-C , 17-N ) :   1.7653 B( 16-C , 18-C ) :  -0.1733 B( 18-C , 19-O ) :   1.2934
B( 18-C , 20-O ) :   0.8804 B( 18-C , 21-C ) :   0.1291 B( 18-C , 22-S ) :  -0.1832
B( 19-O , 22-S ) :  -0.1034 B( 20-O , 21-C ) :   0.8669 B( 21-C , 31-H ) :   1.0067
B( 21-C , 32-H ) :   0.9501 B( 21-C , 33-H ) :   0.9466

-----------------------------------------------------------------------------
         ABSORPTION SPECTRUM VIA TRANSITION ELECTRIC DIPOLE MOMENTS
-----------------------------------------------------------------------------
State   Energy    Wavelength  fosc         T2        TX        TY        TZ
        (cm-1)      (nm)                 (au**2)    (au)      (au)      (au)
-----------------------------------------------------------------------------
   1   19876.8    503.1   2.252708505  37.31070   5.99171   0.35016   1.13468
   2   27112.4    368.8   0.005261580   0.06389  -0.24595  -0.02712  -0.05160
   3   28500.3    350.9   0.398621113   4.60454  -2.10873  -0.10452  -0.38323
   4   29595.2    337.9   0.004657414   0.05181  -0.22432   0.00319  -0.03843
   5   29730.2    336.4   0.000099425   0.00110   0.00701  -0.01515   0.02867
   6   30574.3    327.1   0.000055251   0.00059   0.00373  -0.01355   0.01994
   7   34104.7    293.2   0.001814380   0.01751  -0.12778  -0.03125  -0.01448
   8   37467.9    266.9   0.076288881   0.67031  -0.80115  -0.05509  -0.15950
   9   38110.5    262.4   0.006489857   0.05606   0.09043  -0.18765  -0.11256
  10   38841.8    257.5   0.010350642   0.08773   0.29399  -0.03297   0.01453

FINAL SINGLE POINT ENERGY     -1821.347889484067

DIPOLE MOMENT
-------------
                                X             Y             Z
Electronic contribution:     -3.24376      -1.31903      -1.59485
Nuclear contribution   :      4.62504       1.88840       2.19875
                        -----------------------------------------
Total Dipole Moment    :      1.38128       0.56938       0.60391
                        -----------------------------------------
Magnitude (a.u.)       :      1.61147
Magnitude (Debye)      :      4.09602

Rotational constants in cm-1:     0.020048     0.002520     0.002240
Rotational constants in MHz :   601.008942    75.534555    67.161201

                             ****ORCA TERMINATED NORMALLY****
TOTAL RUN TIME: 0 days 6 hours 16 minutes 42 seconds 509 msec
