                         Program Version 5.0.2 -  RELEASE  -
|  1> ! wb97x-d3 aug-cc-PVTZ RIJCOSX Opt
|  2> %maxcore 4000
|  3> %basis
|  4>  AuxJ "aug-cc-PVTZ/JK"
|  5>  AuxC "aug-cc-PVTZ/C"
|  6>  newGTO H "cc-PVTZ" end
|  7>  newAuxJGTO H "cc-PVTZ/JK" end
|  8>  newAuxCGTO H "cc-PVTZ/C" end
|  9> end
| 10> %cpcm
| 11>  SMD true
| 12>  SMDsolvent "toluene"
| 13> end
| 14> %pal nprocs 4 end
| 15> * xyz 0 1
| 16> C         -5.31150        2.61790        1.32570
| 17> O         -4.65010        1.57880        0.62110
| 18> C         -5.43770        0.76910       -0.11470
| 19> O         -6.63310        0.89650       -0.19020
| 20> C         -4.64760       -0.26950       -0.79620
| 21> C         -5.35990       -1.18080       -1.59740
| 22> N         -5.92160       -1.93440       -2.25580
| 23> C         -3.28260       -0.38980       -0.68930
| 24> C         -2.48560       -1.38640       -1.33270
| 25> C         -1.16260       -1.28720       -1.06210
| 26> C         -0.83540       -0.21040       -0.19360
| 27> C          0.41760        0.12990        0.25070
| 28> C          0.74620        1.20760        1.11690
| 29> C          2.07100        1.29910        1.38500
| 30> C          2.84920        0.29380        0.74020
| 31> C          4.21240        0.11950        0.81350
| 32> C          5.03340        0.96040        1.57580
| 33> N          5.69720        1.65530        2.20440
| 34> C          4.78920       -0.99170        0.05580
| 35> O          4.09660       -1.73700       -0.61280
| 36> O          6.10900       -1.09560        0.17300
| 37> C          6.71900       -2.15840       -0.54510
| 38> S          1.86150       -0.76880       -0.21460
| 39> S         -2.28500        0.67120        0.26550
| 40> H         -6.03230        2.19710        2.02970
| 41> H         -4.53570        3.16730        1.85220
| 42> H         -5.84090        3.26980        0.62790
| 43> H         -2.93840       -2.12910       -1.96550
| 44> H         -0.39970       -1.94040       -1.44770
| 45> H         -0.01040        1.86800        1.50330
| 46> H          2.53440        2.03820        2.01450
| 47> H          7.78330       -2.08840       -0.33750
| 48> H          6.32330       -3.11920       -0.20950
| 49> H          6.52710       -2.05250       -1.61490
| 50> *
| 51>
| 52>
| 53> $new_job
| 54> ! wb97x-d3 aug-cc-PVTZ RIJCOSX SP
| 55> %maxcore 4000
| 56> %basis
| 57>  AuxJ "aug-cc-PVTZ/JK"
| 58>  AuxC "aug-cc-PVTZ/C"
| 59>  newGTO H "cc-PVTZ" end
| 60>  newAuxJGTO H "cc-PVTZ/JK" end
| 61>  newAuxCGTO H "cc-PVTZ/C" end
| 62> end
| 63> %cpcm
| 64>  SMD true
| 65>  SMDsolvent "toluene"
| 66> end
| 67> %pal nprocs 4 end
| 68> %tddft
| 69>  nroots 10
| 70>  maxdim 7
| 71> end
| 72> * xyzfile 0 1
| 73>
| 74>                          ****END OF INPUT****
 Total Charge           Charge          ....    0
 Multiplicity           Mult            ....    1
 Number of Electrons    NEL             ....  184
Dispersion correction           -0.014381784
FINAL SINGLE POINT ENERGY     -1822.556988534086
Dispersion correction            ... done
Dispersion correction           -0.014204846
FINAL SINGLE POINT ENERGY     -1822.563686593669
Dispersion correction            ... done
Dispersion correction           -0.014237504
FINAL SINGLE POINT ENERGY     -1822.564770932204
Dispersion correction            ... done
FINAL SINGLE POINT ENERGY     -1822.564789676245
FINAL SINGLE POINT ENERGY     -1822.564947064885
FINAL SINGLE POINT ENERGY     -1822.564959749803
FINAL SINGLE POINT ENERGY     -1822.564981699430
Dispersion correction           -0.014248567
FINAL SINGLE POINT ENERGY     -1822.564985733485
Dispersion correction            ... done
Dispersion correction           -0.014247859
FINAL SINGLE POINT ENERGY     -1822.564986253459
Dispersion correction            ... done
                    ***********************HURRAY********************
Dispersion correction           -0.014247727
FINAL SINGLE POINT ENERGY     -1822.564987134065

CARTESIAN COORDINATES (ANGSTROEM)
---------------------------------
  C     -5.506189    2.700844    1.351055
  O     -4.786877    1.664799    0.672340
  C     -5.515382    0.828006   -0.065373
  O     -6.712108    0.890979   -0.179452
  C     -4.681128   -0.194463   -0.733153
  C     -5.401700   -1.117449   -1.549061
  N     -5.955034   -1.874534   -2.213236
  C     -3.328958   -0.328251   -0.643524
  C     -2.562999   -1.358935   -1.322603
  C     -1.245925   -1.305960   -1.092226
  C     -0.845810   -0.231763   -0.213999
  C      0.403172    0.069493    0.196425
  C      0.797188    1.146410    1.073175
  C      2.113726    1.198929    1.310292
  C      2.873543    0.163606    0.637506
  C      4.223235    0.003017    0.722185
  C      4.982860    0.894411    1.532342
  N      5.576248    1.624643    2.192931
  C      4.912487   -1.078781   -0.000587
  O      4.333474   -1.871936   -0.707223
  O      6.222053   -1.079270    0.211382
  C      6.965862   -2.101886   -0.461486
  S      1.822918   -0.854590   -0.304317
  S     -2.263296    0.688091    0.290066
  H     -6.221574    2.271599    2.050225
  H     -4.755835    3.276029    1.885192
  H     -6.028332    3.331610    0.633884
  H     -3.049885   -2.090078   -1.951370
  H     -0.532161   -1.998610   -1.516226
  H      0.082154    1.841439    1.491261
  H      2.600675    1.930593    1.938468
  H      8.003055   -1.936905   -0.186805
  H      6.638748   -3.086972   -0.132867
  H      6.842097   -2.014212   -1.539620

 Multiplicity           Mult            ....    1
 Number of Electrons    NEL             ....  184
 Basis Dimension        Dim             .... 1252

ORBITAL ENERGIES
----------------

  NO   OCC          E(Eh)            E(eV)
   0   2.0000     -89.037669     -2422.8381
   1   2.0000     -89.036044     -2422.7939
   2   2.0000     -19.302994      -525.2612
   3   2.0000     -19.300038      -525.1807
   4   2.0000     -19.239937      -523.5453
   5   2.0000     -19.235205      -523.4165
   6   2.0000     -14.432578      -392.7304
   7   2.0000     -14.430994      -392.6873
   8   2.0000     -10.433397      -283.9072
   9   2.0000     -10.432397      -283.8799
  10   2.0000     -10.384081      -282.5652
  11   2.0000     -10.382079      -282.5107
  12   2.0000     -10.364766      -282.0396
  13   2.0000     -10.362231      -281.9706
  14   2.0000     -10.346478      -281.5420
  15   2.0000     -10.343748      -281.4677
  16   2.0000     -10.338248      -281.3180
  17   2.0000     -10.335357      -281.2394
  18   2.0000     -10.333954      -281.2012
  19   2.0000     -10.333816      -281.1974
  20   2.0000     -10.333528      -281.1896
  21   2.0000     -10.331494      -281.1342
  22   2.0000     -10.327519      -281.0261
  23   2.0000     -10.327249      -281.0187
  24   2.0000      -8.111169      -220.7161
  25   2.0000      -8.109046      -220.6584
  26   2.0000      -6.066065      -165.0660
  27   2.0000      -6.063936      -165.0081
  28   2.0000      -6.061962      -164.9544
  29   2.0000      -6.059803      -164.8956
  30   2.0000      -6.057363      -164.8292
  31   2.0000      -6.055338      -164.7741
  32   2.0000      -1.250110       -34.0172
  33   2.0000      -1.249904       -34.0116
  34   2.0000      -1.157010       -31.4838
  35   2.0000      -1.155493       -31.4426
  36   2.0000      -1.059863       -28.8403
  37   2.0000      -1.047260       -28.4974
  38   2.0000      -1.038349       -28.2549
  39   2.0000      -1.029281       -28.0081
  40   2.0000      -0.971459       -26.4347
  41   2.0000      -0.948193       -25.8016
  42   2.0000      -0.907934       -24.7061
  43   2.0000      -0.900672       -24.5085
  44   2.0000      -0.880762       -23.9667
  45   2.0000      -0.862202       -23.4617
  46   2.0000      -0.847115       -23.0512
  47   2.0000      -0.804757       -21.8986
  48   2.0000      -0.754717       -20.5369
  49   2.0000      -0.728886       -19.8340
  50   2.0000      -0.713423       -19.4132
  51   2.0000      -0.708526       -19.2800
  52   2.0000      -0.695274       -18.9194
  53   2.0000      -0.679991       -18.5035
  54   2.0000      -0.665318       -18.1042
  55   2.0000      -0.652633       -17.7590
  56   2.0000      -0.646473       -17.5914
  57   2.0000      -0.617003       -16.7895
  58   2.0000      -0.611339       -16.6354
  59   2.0000      -0.610372       -16.6091
  60   2.0000      -0.593776       -16.1575
  61   2.0000      -0.588891       -16.0245
  62   2.0000      -0.574434       -15.6311
  63   2.0000      -0.557464       -15.1694
  64   2.0000      -0.556962       -15.1557
  65   2.0000      -0.544251       -14.8098
  66   2.0000      -0.540482       -14.7073
  67   2.0000      -0.538525       -14.6540
  68   2.0000      -0.529275       -14.4023
  69   2.0000      -0.522394       -14.2151
  70   2.0000      -0.517006       -14.0684
  71   2.0000      -0.502907       -13.6848
  72   2.0000      -0.501619       -13.6497
  73   2.0000      -0.487747       -13.2723
  74   2.0000      -0.482752       -13.1363
  75   2.0000      -0.482645       -13.1334
  76   2.0000      -0.479604       -13.0507
  77   2.0000      -0.474200       -12.9036
  78   2.0000      -0.471964       -12.8428
  79   2.0000      -0.470223       -12.7954
  80   2.0000      -0.455268       -12.3885
  81   2.0000      -0.448539       -12.2054
  82   2.0000      -0.444152       -12.0860
  83   2.0000      -0.427390       -11.6299
  84   2.0000      -0.420816       -11.4510
  85   2.0000      -0.417729       -11.3670
  86   2.0000      -0.398269       -10.8374
  87   2.0000      -0.392974       -10.6934
  88   2.0000      -0.392817       -10.6891
  89   2.0000      -0.383439       -10.4339
  90   2.0000      -0.363248        -9.8845
  91   2.0000      -0.293987        -7.9998
  92   0.0000      -0.078769        -2.1434
  93   0.0000      -0.010120        -0.2754
  94   0.0000       0.040574         1.1041
  95   0.0000       0.043330         1.1791
  96   0.0000       0.047906         1.3036

MULLIKEN ATOMIC CHARGES
-----------------------
   0 C :   -0.541387
   1 O :   -0.051650
   2 C :    0.022767
   3 O :   -0.863230
   4 C :    1.505351
   5 C :    0.419870
   6 N :   -0.810742
   7 C :    0.185201
   8 C :   -1.035860
   9 C :   -0.678485
  10 C :    0.607533
  11 C :    0.918040
  12 C :   -0.866047
  13 C :   -1.349408
  14 C :    0.036757
  15 C :    1.562422
  16 C :    0.699467
  17 N :   -0.842028
  18 C :    0.193133
  19 O :   -0.783647
  20 O :   -0.221267
  21 C :   -0.500116
  22 S :    0.352509
  23 S :    0.391190
  24 H :    0.198467
  25 H :    0.158117
  26 H :    0.197588
  27 H :    0.158243
  28 H :    0.114619
  29 H :    0.102726
  30 H :    0.170702
  31 H :    0.150645
  32 H :    0.197579
  33 H :    0.200941
Sum of atomic charges:    0.0000000

LOEWDIN ATOMIC CHARGES
----------------------
   0 C :   -0.147848
   1 O :    0.345601
   2 C :   -0.975745
   3 O :    0.462832
   4 C :   -0.291651
   5 C :   -0.319798
   6 N :    0.266824
   7 C :   -0.584253
   8 C :   -0.046661
   9 C :   -0.069954
  10 C :   -0.653802
  11 C :   -0.651820
  12 C :   -0.073574
  13 C :   -0.043292
  14 C :   -0.591798
  15 C :   -0.301252
  16 C :   -0.313088
  17 N :    0.262446
  18 C :   -0.988576
  19 O :    0.439101
  20 O :    0.387115
  21 C :   -0.146085
  22 S :    1.302201
  23 S :    1.297150
  24 H :    0.112084
  25 H :    0.096813
  26 H :    0.112481
  27 H :    0.203942
  28 H :    0.195431
  29 H :    0.194555
  30 H :    0.201951
  31 H :    0.095661
  32 H :    0.111154
  33 H :    0.111858

  Mayer bond orders larger than 0.100000
B(  0-C ,  1-O ) :   0.6738 B(  0-C ,  2-C ) :   0.2209 B(  0-C , 24-H ) :   0.9623
B(  0-C , 25-H ) :   1.0120 B(  0-C , 26-H ) :   0.9618 B(  1-O ,  2-C ) :   1.0338
B(  1-O ,  7-C ) :   0.1222 B(  1-O , 23-S ) :  -0.2033 B(  2-C ,  3-O ) :   1.3496
B(  2-C ,  4-C ) :  -0.1611 B(  2-C ,  5-C ) :   0.1072 B(  2-C ,  7-C ) :   0.2173
B(  3-O ,  4-C ) :  -0.2663 B(  3-O ,  7-C ) :   0.1397 B(  4-C ,  5-C ) :   0.2522
B(  4-C ,  6-N ) :   0.3004 B(  4-C ,  7-C ) :   1.0133 B(  4-C ,  8-C ) :  -0.2327
B(  5-C ,  6-N ) :   1.7170 B(  5-C ,  7-C ) :   0.2890 B(  5-C ,  8-C ) :   0.2473
B(  6-N ,  7-C ) :  -0.1005 B(  6-N ,  8-C ) :   0.1012 B(  7-C ,  8-C ) :   0.4860
B(  7-C ,  9-C ) :   0.1780 B(  7-C , 10-C ) :  -0.2198 B(  7-C , 11-C ) :   0.1635
B(  7-C , 23-S ) :   0.9543 B(  8-C ,  9-C ) :   1.1350 B(  8-C , 27-H ) :   1.1434
B(  9-C , 10-C ) :   0.1606 B(  9-C , 12-C ) :   0.2564 B(  9-C , 28-H ) :   1.1978
B( 10-C , 11-C ) :   1.1459 B( 10-C , 12-C ) :   0.1070 B( 10-C , 14-C ) :   0.2181
B( 10-C , 15-C ) :  -0.1225 B( 10-C , 23-S ) :   0.4532 B( 10-C , 28-H ) :  -0.2318
B( 11-C , 14-C ) :  -0.1983 B( 11-C , 22-S ) :   0.5628 B( 11-C , 29-H ) :  -0.2750
B( 12-C , 13-C ) :   1.6334 B( 12-C , 14-C ) :   0.1160 B( 12-C , 29-H ) :   1.2170
B( 13-C , 14-C ) :   0.2277 B( 13-C , 16-C ) :   0.1970 B( 13-C , 17-N ) :   0.1397
B( 13-C , 30-H ) :   1.1266 B( 14-C , 15-C ) :   0.5644 B( 14-C , 16-C ) :  -0.2467
B( 14-C , 17-N ) :  -0.1211 B( 14-C , 18-C ) :   0.7179 B( 14-C , 19-O ) :   0.1814
B( 14-C , 20-O ) :   0.2075 B( 14-C , 22-S ) :   0.8466 B( 14-C , 30-H ) :  -0.1337
B( 15-C , 16-C ) :   1.0057 B( 15-C , 17-N ) :   0.2030 B( 15-C , 18-C ) :  -0.3577
B( 15-C , 19-O ) :  -0.1195 B( 15-C , 20-O ) :  -0.2549 B( 15-C , 21-C ) :  -0.1111
B( 15-C , 22-S ) :   0.2663 B( 16-C , 17-N ) :   1.7909 B( 16-C , 18-C ) :  -0.2392
B( 18-C , 19-O ) :   1.2627 B( 18-C , 20-O ) :   0.9238 B( 18-C , 21-C ) :   0.1530
B( 18-C , 22-S ) :  -0.1507 B( 20-O , 21-C ) :   0.7544 B( 21-C , 31-H ) :   1.0215
B( 21-C , 32-H ) :   0.9559 B( 21-C , 33-H ) :   0.9520

-----------------------------------------------------------------------------
         ABSORPTION SPECTRUM VIA TRANSITION ELECTRIC DIPOLE MOMENTS
-----------------------------------------------------------------------------
State   Energy    Wavelength  fosc         T2        TX        TY        TZ
        (cm-1)      (nm)                 (au**2)    (au)      (au)      (au)
-----------------------------------------------------------------------------
   1   21770.3    459.3   1.976657009  29.89113   5.35802   0.32718   1.03716
   2   33454.7    298.9   0.016510199   0.16247  -0.39766  -0.01986  -0.06276
   3   34204.5    292.4   0.243649064   2.34508   1.51929  -0.05512   0.18387
   4   35556.6    281.2   0.002312819   0.02141   0.14222   0.02137   0.02702
   5   37800.5    264.5   0.000269896   0.00235  -0.01665  -0.02830   0.03567
   6   38786.0    257.8   0.000870482   0.00739   0.07172   0.03763   0.02879
   7   39884.5    250.7   0.000133732   0.00110  -0.00282  -0.01705   0.02838
   8   44723.0    223.6   0.149080856   1.09741   1.03650  -0.14057   0.05763
   9   45266.9    220.9   0.000911456   0.00663  -0.01562  -0.04520   0.06589
  10   46371.8    215.6   0.000034045   0.00024   0.00353  -0.01123   0.01015

Dispersion correction           -0.014247727
FINAL SINGLE POINT ENERGY     -1822.465794294899

DIPOLE MOMENT
-------------
                                X             Y             Z
Electronic contribution:     -3.35768      -1.40957      -1.59437
Nuclear contribution   :      4.73637       2.00946       2.22398
                        -----------------------------------------
Total Dipole Moment    :      1.37869       0.59989       0.62962
                        -----------------------------------------
Magnitude (a.u.)       :      1.63005
Magnitude (Debye)      :      4.14327

Rotational constants in cm-1:     0.019992     0.002516     0.002237
Rotational constants in MHz :   599.351871    75.423082    67.050260

                             ****ORCA TERMINATED NORMALLY****
TOTAL RUN TIME: 0 days 8 hours 12 minutes 38 seconds 132 msec
