                         Program Version 5.0.2 -  RELEASE  -
|  1> ! x3lyp aug-cc-PVTZ RIJCOSX Opt
|  2> %maxcore 4000
|  3> %basis
|  4>  AuxJ "aug-cc-PVTZ/JK"
|  5>  AuxC "aug-cc-PVTZ/C"
|  6>  newGTO H "cc-PVTZ" end
|  7>  newAuxJGTO H "cc-PVTZ/JK" end
|  8>  newAuxCGTO H "cc-PVTZ/C" end
|  9> end
| 10> %cpcm
| 11>  SMD true
| 12>  SMDsolvent "toluene"
| 13> end
| 14> %pal nprocs 4 end
| 15> * xyz 0 1
| 16> C         -5.31150        2.61790        1.32570
| 17> O         -4.65010        1.57880        0.62110
| 18> C         -5.43770        0.76910       -0.11470
| 19> O         -6.63310        0.89650       -0.19020
| 20> C         -4.64760       -0.26950       -0.79620
| 21> C         -5.35990       -1.18080       -1.59740
| 22> N         -5.92160       -1.93440       -2.25580
| 23> C         -3.28260       -0.38980       -0.68930
| 24> C         -2.48560       -1.38640       -1.33270
| 25> C         -1.16260       -1.28720       -1.06210
| 26> C         -0.83540       -0.21040       -0.19360
| 27> C          0.41760        0.12990        0.25070
| 28> C          0.74620        1.20760        1.11690
| 29> C          2.07100        1.29910        1.38500
| 30> C          2.84920        0.29380        0.74020
| 31> C          4.21240        0.11950        0.81350
| 32> C          5.03340        0.96040        1.57580
| 33> N          5.69720        1.65530        2.20440
| 34> C          4.78920       -0.99170        0.05580
| 35> O          4.09660       -1.73700       -0.61280
| 36> O          6.10900       -1.09560        0.17300
| 37> C          6.71900       -2.15840       -0.54510
| 38> S          1.86150       -0.76880       -0.21460
| 39> S         -2.28500        0.67120        0.26550
| 40> H         -6.03230        2.19710        2.02970
| 41> H         -4.53570        3.16730        1.85220
| 42> H         -5.84090        3.26980        0.62790
| 43> H         -2.93840       -2.12910       -1.96550
| 44> H         -0.39970       -1.94040       -1.44770
| 45> H         -0.01040        1.86800        1.50330
| 46> H          2.53440        2.03820        2.01450
| 47> H          7.78330       -2.08840       -0.33750
| 48> H          6.32330       -3.11920       -0.20950
| 49> H          6.52710       -2.05250       -1.61490
| 50> *
| 51>
| 52>
| 53> $new_job
| 54> ! x3lyp aug-cc-PVTZ RIJCOSX SP
| 55> %maxcore 4000
| 56> %basis
| 57>  AuxJ "aug-cc-PVTZ/JK"
| 58>  AuxC "aug-cc-PVTZ/C"
| 59>  newGTO H "cc-PVTZ" end
| 60>  newAuxJGTO H "cc-PVTZ/JK" end
| 61>  newAuxCGTO H "cc-PVTZ/C" end
| 62> end
| 63> %cpcm
| 64>  SMD true
| 65>  SMDsolvent "toluene"
| 66> end
| 67> %pal nprocs 4 end
| 68> %tddft
| 69>  nroots 10
| 70>  maxdim 7
| 71> end
| 72> * xyzfile 0 1
| 73>
| 74>                          ****END OF INPUT****
 Total Charge           Charge          ....    0
 Multiplicity           Mult            ....    1
 Number of Electrons    NEL             ....  184
FINAL SINGLE POINT ENERGY     -1821.922269818132
FINAL SINGLE POINT ENERGY     -1821.928062787106
FINAL SINGLE POINT ENERGY     -1821.928701600865
FINAL SINGLE POINT ENERGY     -1821.928792017863
FINAL SINGLE POINT ENERGY     -1821.928862328140
FINAL SINGLE POINT ENERGY     -1821.928888528761
FINAL SINGLE POINT ENERGY     -1821.928906392833
FINAL SINGLE POINT ENERGY     -1821.928909004303
                    ***********************HURRAY********************
FINAL SINGLE POINT ENERGY     -1821.928907353713

CARTESIAN COORDINATES (ANGSTROEM)
---------------------------------
  C     -5.541494    2.704168    1.360689
  O     -4.816040    1.664032    0.675207
  C     -5.546302    0.817535   -0.065784
  O     -6.748347    0.878141   -0.174842
  C     -4.712651   -0.201321   -0.735513
  C     -5.433141   -1.121757   -1.544604
  N     -5.993199   -1.880701   -2.207196
  C     -3.346100   -0.332737   -0.651494
  C     -2.578049   -1.347211   -1.327916
  C     -1.248545   -1.287393   -1.099098
  C     -0.851379   -0.225735   -0.225477
  C      0.412751    0.084298    0.190553
  C      0.804780    1.148029    1.063417
  C      2.133338    1.203494    1.302531
  C      2.894188    0.181703    0.634522
  C      4.255958    0.013411    0.721921
  C      5.018351    0.894815    1.530007
  N      5.621495    1.621009    2.192813
  C      4.936238   -1.072017   -0.001734
  O      4.350664   -1.858509   -0.718273
  O      6.252124   -1.091711    0.219734
  C      6.997056   -2.127712   -0.449283
  S      1.838890   -0.841978   -0.319458
  S     -2.275906    0.694746    0.286856
  H     -6.254229    2.270713    2.059169
  H     -4.790154    3.279205    1.893147
  H     -6.065052    3.333793    0.644156
  H     -3.055757   -2.081015   -1.959112
  H     -0.536528   -1.975247   -1.531503
  H      0.092257    1.839466    1.489318
  H      2.611040    1.935630    1.935806
  H      8.030137   -1.977805   -0.152172
  H      6.649427   -3.109174   -0.132197
  H      6.894478   -2.032268   -1.528592

 Multiplicity           Mult            ....    1
 Number of Electrons    NEL             ....  184
 Basis Dimension        Dim             .... 1252

ORBITAL ENERGIES
----------------

  NO   OCC          E(Eh)            E(eV)
   0   2.0000     -89.015214     -2422.2271
   1   2.0000     -89.013377     -2422.1771
   2   2.0000     -19.224856      -523.1349
   3   2.0000     -19.222851      -523.0804
   4   2.0000     -19.165426      -521.5178
   5   2.0000     -19.160212      -521.3759
   6   2.0000     -14.352726      -390.5575
   7   2.0000     -14.351466      -390.5232
   8   2.0000     -10.347589      -281.5722
   9   2.0000     -10.346181      -281.5339
  10   2.0000     -10.292910      -280.0843
  11   2.0000     -10.290604      -280.0216
  12   2.0000     -10.279798      -279.7275
  13   2.0000     -10.277373      -279.6615
  14   2.0000     -10.264552      -279.3126
  15   2.0000     -10.262044      -279.2444
  16   2.0000     -10.255167      -279.0573
  17   2.0000     -10.252614      -278.9878
  18   2.0000     -10.249493      -278.9029
  19   2.0000     -10.247518      -278.8491
  20   2.0000     -10.247416      -278.8464
  21   2.0000     -10.247379      -278.8454
  22   2.0000     -10.243237      -278.7327
  23   2.0000     -10.242888      -278.7231
  24   2.0000      -8.019332      -218.2171
  25   2.0000      -8.016958      -218.1525
  26   2.0000      -5.977279      -162.6500
  27   2.0000      -5.974901      -162.5853
  28   2.0000      -5.973577      -162.5493
  29   2.0000      -5.971176      -162.4840
  30   2.0000      -5.969556      -162.4399
  31   2.0000      -5.967272      -162.3777
  32   2.0000      -1.134055       -30.8592
  33   2.0000      -1.133466       -30.8432
  34   2.0000      -1.045955       -28.4619
  35   2.0000      -1.043749       -28.4019
  36   2.0000      -0.942379       -25.6434
  37   2.0000      -0.933470       -25.4010
  38   2.0000      -0.926893       -25.2220
  39   2.0000      -0.915077       -24.9005
  40   2.0000      -0.856652       -23.3107
  41   2.0000      -0.835126       -22.7249
  42   2.0000      -0.794660       -21.6238
  43   2.0000      -0.787044       -21.4166
  44   2.0000      -0.769280       -20.9332
  45   2.0000      -0.751387       -20.4463
  46   2.0000      -0.737231       -20.0611
  47   2.0000      -0.700556       -19.0631
  48   2.0000      -0.649364       -17.6701
  49   2.0000      -0.623657       -16.9706
  50   2.0000      -0.610753       -16.6194
  51   2.0000      -0.606807       -16.5121
  52   2.0000      -0.592282       -16.1168
  53   2.0000      -0.575990       -15.6735
  54   2.0000      -0.562752       -15.3133
  55   2.0000      -0.549945       -14.9648
  56   2.0000      -0.544443       -14.8150
  57   2.0000      -0.518181       -14.1004
  58   2.0000      -0.505550       -13.7567
  59   2.0000      -0.504962       -13.7407
  60   2.0000      -0.494668       -13.4606
  61   2.0000      -0.489871       -13.3301
  62   2.0000      -0.477743       -13.0000
  63   2.0000      -0.462534       -12.5862
  64   2.0000      -0.451656       -12.2902
  65   2.0000      -0.450531       -12.2596
  66   2.0000      -0.443661       -12.0726
  67   2.0000      -0.438744       -11.9388
  68   2.0000      -0.435783       -11.8583
  69   2.0000      -0.425068       -11.5667
  70   2.0000      -0.423979       -11.5371
  71   2.0000      -0.411246       -11.1906
  72   2.0000      -0.405644       -11.0381
  73   2.0000      -0.393585       -10.7100
  74   2.0000      -0.386918       -10.5286
  75   2.0000      -0.385411       -10.4876
  76   2.0000      -0.384503       -10.4629
  77   2.0000      -0.381054       -10.3690
  78   2.0000      -0.376996       -10.2586
  79   2.0000      -0.375575       -10.2199
  80   2.0000      -0.362262        -9.8576
  81   2.0000      -0.356590        -9.7033
  82   2.0000      -0.352436        -9.5903
  83   2.0000      -0.335958        -9.1419
  84   2.0000      -0.328748        -8.9457
  85   2.0000      -0.326454        -8.8833
  86   2.0000      -0.305002        -8.2995
  87   2.0000      -0.303263        -8.2522
  88   2.0000      -0.302721        -8.2375
  89   2.0000      -0.294065        -8.0019
  90   2.0000      -0.282642        -7.6911
  91   2.0000      -0.227083        -6.1792
  92   0.0000      -0.140847        -3.8326
  93   0.0000      -0.077879        -2.1192
  94   0.0000      -0.026210        -0.7132
  95   0.0000      -0.014671        -0.3992
  96   0.0000      -0.006729        -0.1831

MULLIKEN ATOMIC CHARGES
-----------------------
   0 C :   -0.454259
   1 O :   -0.161701
   2 C :    0.024553
   3 O :   -0.811889
   4 C :    1.162913
   5 C :    0.495241
   6 N :   -0.783407
   7 C :    0.252085
   8 C :   -0.841426
   9 C :   -0.621156
  10 C :    0.516451
  11 C :    0.787835
  12 C :   -0.777715
  13 C :   -1.123759
  14 C :    0.039618
  15 C :    1.251330
  16 C :    0.702207
  17 N :   -0.795207
  18 C :    0.158265
  19 O :   -0.757141
  20 O :   -0.274771
  21 C :   -0.430759
  22 S :    0.411790
  23 S :    0.428325
  24 H :    0.188381
  25 H :    0.159012
  26 H :    0.187554
  27 H :    0.162361
  28 H :    0.104551
  29 H :    0.095240
  30 H :    0.169678
  31 H :    0.154552
  32 H :    0.189101
  33 H :    0.192147
Sum of atomic charges:   -0.0000000

LOEWDIN ATOMIC CHARGES
----------------------
   0 C :   -0.149621
   1 O :    0.345203
   2 C :   -0.974030
   3 O :    0.460143
   4 C :   -0.291710
   5 C :   -0.324554
   6 N :    0.271670
   7 C :   -0.574407
   8 C :   -0.050261
   9 C :   -0.074913
  10 C :   -0.644527
  11 C :   -0.642137
  12 C :   -0.078561
  13 C :   -0.046997
  14 C :   -0.581630
  15 C :   -0.301953
  16 C :   -0.317731
  17 N :    0.266384
  18 C :   -0.985220
  19 O :    0.435214
  20 O :    0.387866
  21 C :   -0.147076
  22 S :    1.300414
  23 S :    1.296861
  24 H :    0.110744
  25 H :    0.096240
  26 H :    0.111077
  27 H :    0.202079
  28 H :    0.193406
  29 H :    0.192276
  30 H :    0.199986
  31 H :    0.095577
  32 H :    0.110041
  33 H :    0.110146

  Mayer bond orders larger than 0.100000
B(  0-C ,  1-O ) :   0.7208 B(  0-C ,  2-C ) :   0.1761 B(  0-C , 24-H ) :   0.9603
B(  0-C , 25-H ) :   1.0057 B(  0-C , 26-H ) :   0.9607 B(  1-O ,  2-C ) :   0.9939
B(  1-O ,  7-C ) :   0.1688 B(  1-O , 23-S ) :  -0.2723 B(  2-C ,  3-O ) :   1.3581
B(  2-C ,  4-C ) :  -0.1326 B(  2-C ,  7-C ) :   0.1678 B(  3-O ,  4-C ) :  -0.2043
B(  3-O ,  7-C ) :   0.1245 B(  4-C ,  5-C ) :   0.5630 B(  4-C ,  6-N ) :   0.4307
B(  4-C ,  7-C ) :   0.8801 B(  4-C , 23-S ) :   0.1011 B(  5-C ,  6-N ) :   1.5852
B(  5-C ,  7-C ) :   0.2136 B(  5-C ,  8-C ) :   0.1794 B(  7-C ,  8-C ) :   0.5851
B(  7-C ,  9-C ) :   0.1933 B(  7-C , 10-C ) :  -0.1777 B(  7-C , 11-C ) :   0.1352
B(  7-C , 23-S ) :   0.9063 B(  8-C ,  9-C ) :   0.8189 B(  8-C , 10-C ) :   0.1118
B(  8-C , 27-H ) :   1.0679 B(  9-C , 10-C ) :   0.3757 B(  9-C , 12-C ) :   0.1971
B(  9-C , 14-C ) :  -0.1128 B(  9-C , 28-H ) :   1.1466 B( 10-C , 11-C ) :   0.8773
B( 10-C , 12-C ) :   0.1326 B( 10-C , 14-C ) :   0.1735 B( 10-C , 22-S ) :   0.1570
B( 10-C , 23-S ) :   0.4248 B( 10-C , 28-H ) :  -0.1386 B( 11-C , 12-C ) :   0.2701
B( 11-C , 14-C ) :  -0.1694 B( 11-C , 22-S ) :   0.4421 B( 11-C , 23-S ) :   0.2561
B( 11-C , 29-H ) :  -0.1583 B( 12-C , 13-C ) :   1.1743 B( 12-C , 14-C ) :   0.1969
B( 12-C , 29-H ) :   1.1557 B( 13-C , 14-C ) :   0.5435 B( 13-C , 16-C ) :   0.1642
B( 13-C , 17-N ) :   0.1274 B( 13-C , 30-H ) :   1.0600 B( 14-C , 15-C ) :   0.5816
B( 14-C , 16-C ) :  -0.1917 B( 14-C , 18-C ) :   0.5286 B( 14-C , 19-O ) :   0.2522
B( 14-C , 20-O ) :   0.1961 B( 14-C , 22-S ) :   0.8750 B( 15-C , 16-C ) :   1.0462
B( 15-C , 17-N ) :   0.3499 B( 15-C , 18-C ) :  -0.2962 B( 15-C , 20-O ) :  -0.1901
B( 15-C , 22-S ) :   0.2626 B( 16-C , 17-N ) :   1.6652 B( 16-C , 18-C ) :  -0.1780
B( 18-C , 19-O ) :   1.2333 B( 18-C , 20-O ) :   0.8837 B( 18-C , 21-C ) :   0.1424
B( 18-C , 22-S ) :  -0.1909 B( 19-O , 22-S ) :  -0.1443 B( 20-O , 21-C ) :   0.7740
B( 21-C , 31-H ) :   1.0153 B( 21-C , 32-H ) :   0.9542 B( 21-C , 33-H ) :   0.9518

-----------------------------------------------------------------------------
         ABSORPTION SPECTRUM VIA TRANSITION ELECTRIC DIPOLE MOMENTS
-----------------------------------------------------------------------------
State   Energy    Wavelength  fosc         T2        TX        TY        TZ
        (cm-1)      (nm)                 (au**2)    (au)      (au)      (au)
-----------------------------------------------------------------------------
   1   19691.6    507.8   2.206336374  36.88638   5.96079   0.32999   1.11645
   2   26271.2    380.6   0.004215010   0.05282  -0.22394  -0.02337  -0.04607
   3   27759.7    360.2   0.427897947   5.07460  -2.21439  -0.10537  -0.39997
   4   28778.2    347.5   0.005265495   0.06024  -0.24177   0.00229  -0.04219
   5   29075.6    343.9   0.000083043   0.00094   0.00974   0.01599  -0.02428
   6   29818.8    335.4   0.000046271   0.00051   0.00261  -0.01226   0.01881
   7   33478.4    298.7   0.001870787   0.01840  -0.13115  -0.03244  -0.01201
   8   36531.2    273.7   0.078575356   0.70811  -0.82783  -0.03255  -0.14747
   9   37214.7    268.7   0.005069579   0.04485   0.03231  -0.17649  -0.11250
  10   37827.1    264.4   0.007135173   0.06210  -0.24536   0.04353   0.00027

FINAL SINGLE POINT ENERGY     -1821.839185889934

DIPOLE MOMENT
-------------
                                X             Y             Z
Electronic contribution:     -3.34148      -1.36252      -1.67271
Nuclear contribution   :      4.73173       1.94984       2.28973
                        -----------------------------------------
Total Dipole Moment    :      1.39025       0.58732       0.61702
                        -----------------------------------------
Magnitude (a.u.)       :      1.63047
Magnitude (Debye)      :      4.14433

Rotational constants in cm-1:     0.019973     0.002487     0.002214
Rotational constants in MHz :   598.769301    74.562782    66.364536

                             ****ORCA TERMINATED NORMALLY****
TOTAL RUN TIME: 0 days 5 hours 4 minutes 41 seconds 239 msec
